# Solver information
# Time        	U_solver      	Ux_initial    	Ux_final      	Ux_iters      	Uy_initial    	Uy_final      	Uy_iters      	U_converged   	p_solver      	p_initial     	p_final       	p_iters       	p_converged   
1             	smoothSolver	0.000000e+00	0.000000e+00	0	0.000000e+00	0.000000e+00	0	false	GAMG	9.999940e-01	7.300030e-03	4	true
2             	smoothSolver	1.126680e-01	9.323150e-03	5	1.000000e+00	8.310410e-02	2	false	GAMG	1.000000e+00	4.482570e-03	4	true
3             	smoothSolver	3.155710e-02	2.460780e-03	3	5.699790e-01	3.772560e-02	2	false	GAMG	1.461770e-01	1.044520e-03	6	true
4             	smoothSolver	2.180320e-02	1.644270e-03	4	4.571620e-01	2.671510e-02	3	false	GAMG	1.537820e-01	1.249050e-03	5	true
5             	smoothSolver	1.656720e-02	1.574200e-03	4	4.493180e-01	3.186060e-02	3	false	GAMG	1.215050e-01	1.059500e-03	4	true
6             	smoothSolver	1.321040e-02	9.308350e-04	5	4.750570e-01	3.769680e-02	3	false	GAMG	1.123970e-01	7.493830e-04	5	true
7             	smoothSolver	1.132230e-02	9.024310e-04	5	4.614660e-01	4.238810e-02	3	false	GAMG	1.060380e-01	8.611700e-04	5	true
8             	smoothSolver	9.972550e-03	8.749750e-04	5	4.102890e-01	2.773000e-02	4	false	GAMG	1.064590e-01	6.393980e-04	7	true
9             	smoothSolver	9.115280e-03	8.611950e-04	5	3.327090e-01	2.621130e-02	4	false	GAMG	9.644440e-02	9.161190e-04	5	true
10            	smoothSolver	8.467450e-03	5.461340e-04	6	2.900750e-01	2.631650e-02	4	false	GAMG	9.001990e-02	8.864830e-04	5	true
11            	smoothSolver	7.956210e-03	5.411970e-04	6	2.611330e-01	2.588650e-02	4	false	GAMG	8.604130e-02	8.016220e-04	5	true
12            	smoothSolver	7.677950e-03	5.376420e-04	6	2.572320e-01	2.558370e-02	4	false	GAMG	7.973340e-02	5.823980e-04	6	true
13            	smoothSolver	7.572560e-03	5.343890e-04	6	2.448360e-01	1.536860e-02	5	false	GAMG	7.690220e-02	5.679550e-04	6	true
14            	smoothSolver	7.531310e-03	5.328000e-04	6	2.282370e-01	1.497140e-02	5	false	GAMG	7.390080e-02	5.845400e-04	6	true
15            	smoothSolver	7.432140e-03	5.272560e-04	6	2.262320e-01	1.528690e-02	5	false	GAMG	7.395290e-02	6.212630e-04	6	true
16            	smoothSolver	7.347410e-03	5.233730e-04	6	2.157570e-01	1.576010e-02	5	false	GAMG	7.209150e-02	5.355080e-04	7	true
17            	smoothSolver	7.262360e-03	5.194640e-04	6	2.180350e-01	1.595710e-02	5	false	GAMG	7.031110e-02	4.288750e-04	7	true
18            	smoothSolver	7.180290e-03	5.155680e-04	6	2.180150e-01	1.541200e-02	5	false	GAMG	7.150900e-02	5.618270e-04	6	true
19            	smoothSolver	7.094810e-03	5.108760e-04	6	2.063320e-01	1.472840e-02	5	false	GAMG	7.031930e-02	6.239920e-04	6	true
20            	smoothSolver	7.012030e-03	5.064860e-04	6	2.011290e-01	1.476350e-02	5	false	GAMG	6.825050e-02	3.911080e-04	7	true
21            	smoothSolver	6.935950e-03	5.023000e-04	6	1.938540e-01	1.443930e-02	5	false	GAMG	7.035010e-02	3.872890e-04	7	true
22            	smoothSolver	6.835360e-03	4.962920e-04	6	1.890630e-01	1.481490e-02	5	false	GAMG	6.893650e-02	3.997980e-04	7	true
23            	smoothSolver	6.762020e-03	4.924700e-04	6	1.717690e-01	1.463720e-02	5	false	GAMG	6.541360e-02	3.894940e-04	7	true
24            	smoothSolver	6.676220e-03	4.877820e-04	6	1.766460e-01	1.385290e-02	5	false	GAMG	6.843450e-02	6.348060e-04	6	true
25            	smoothSolver	6.592620e-03	4.827390e-04	6	1.675270e-01	1.306430e-02	5	false	GAMG	6.840100e-02	5.794040e-04	6	true
26            	smoothSolver	6.502920e-03	4.773210e-04	6	1.526340e-01	1.203170e-02	5	false	GAMG	6.412220e-02	4.871110e-04	6	true
27            	smoothSolver	6.420020e-03	4.726170e-04	6	1.450660e-01	1.130160e-02	5	false	GAMG	6.164420e-02	4.390550e-04	6	true
28            	smoothSolver	6.328320e-03	4.670400e-04	6	1.469560e-01	1.122930e-02	5	false	GAMG	5.946260e-02	5.335480e-04	6	true
29            	smoothSolver	6.235450e-03	4.612240e-04	6	1.440100e-01	1.095050e-02	5	false	GAMG	5.879640e-02	3.657470e-04	7	true
30            	smoothSolver	6.144950e-03	4.554250e-04	6	1.335300e-01	1.048570e-02	5	false	GAMG	5.760400e-02	3.103870e-04	7	true
31            	smoothSolver	6.052900e-03	4.498310e-04	6	1.208430e-01	9.135660e-03	5	false	GAMG	5.664230e-02	5.407420e-04	5	true
32            	smoothSolver	5.954210e-03	4.438030e-04	6	1.131480e-01	8.277760e-03	5	false	GAMG	5.550050e-02	4.862130e-04	5	true
33            	smoothSolver	5.858030e-03	4.378130e-04	6	1.058430e-01	7.455020e-03	5	false	GAMG	5.265660e-02	3.687680e-04	6	true
34            	smoothSolver	5.761790e-03	4.318250e-04	6	9.842120e-02	6.811360e-03	5	false	GAMG	5.273290e-02	2.902070e-04	6	true
35            	smoothSolver	5.657060e-03	4.252280e-04	6	9.995970e-02	6.415150e-03	5	false	GAMG	5.035860e-02	4.526080e-04	5	true
36            	smoothSolver	5.554680e-03	4.185480e-04	6	8.873050e-02	8.725820e-03	4	false	GAMG	5.060400e-02	3.504890e-04	5	true
37            	smoothSolver	5.455330e-03	4.121490e-04	6	8.373470e-02	8.254340e-03	4	false	GAMG	4.914990e-02	3.870930e-04	5	true
38            	smoothSolver	5.355660e-03	4.056890e-04	6	7.951710e-02	7.910890e-03	4	false	GAMG	4.892000e-02	4.835950e-04	5	true
39            	smoothSolver	5.257700e-03	3.993260e-04	6	8.212150e-02	7.080230e-03	4	false	GAMG	5.125760e-02	4.744130e-04	5	true
40            	smoothSolver	5.163340e-03	3.932000e-04	6	7.150650e-02	6.818860e-03	4	false	GAMG	4.503500e-02	4.017570e-04	5	true
41            	smoothSolver	5.068050e-03	3.870820e-04	6	7.001450e-02	6.476910e-03	4	false	GAMG	4.784990e-02	2.114050e-04	6	true
42            	smoothSolver	4.977120e-03	3.811800e-04	6	6.551890e-02	6.331200e-03	4	false	GAMG	5.128330e-02	4.901180e-04	5	true
43            	smoothSolver	4.892310e-03	3.757320e-04	6	6.750050e-02	6.113030e-03	4	false	GAMG	5.196730e-02	4.337800e-04	5	true
44            	smoothSolver	4.809500e-03	3.703760e-04	6	6.544690e-02	4.387120e-03	5	false	GAMG	5.120460e-02	2.644450e-04	6	true
45            	smoothSolver	4.727930e-03	3.651360e-04	6	5.879200e-02	5.860010e-03	4	false	GAMG	4.705510e-02	4.563440e-04	5	true
46            	smoothSolver	4.650160e-03	3.601640e-04	6	5.519560e-02	3.717990e-03	5	false	GAMG	4.744530e-02	4.567320e-04	5	true
47            	smoothSolver	4.578360e-03	3.556070e-04	6	5.875910e-02	5.409020e-03	4	false	GAMG	5.732710e-02	4.437230e-04	5	true
48            	smoothSolver	4.510730e-03	3.513310e-04	6	5.406920e-02	3.952880e-03	5	false	GAMG	4.652620e-02	2.372810e-04	6	true
49            	smoothSolver	4.444740e-03	3.472250e-04	6	5.550830e-02	3.609180e-03	5	false	GAMG	5.250620e-02	1.763400e-04	6	true
50            	smoothSolver	4.384460e-03	3.434030e-04	6	5.169020e-02	3.487260e-03	5	false	GAMG	5.255090e-02	2.526880e-04	6	true
51            	smoothSolver	4.325660e-03	3.397180e-04	6	5.169110e-02	4.735530e-03	4	false	GAMG	5.430550e-02	5.167610e-04	4	true
52            	smoothSolver	4.268870e-03	3.361590e-04	6	5.368300e-02	5.022330e-03	4	false	GAMG	5.725220e-02	5.467720e-04	5	true
53            	smoothSolver	4.215340e-03	3.328080e-04	6	4.886950e-02	4.489780e-03	4	false	GAMG	5.491960e-02	4.995620e-04	5	true
54            	smoothSolver	4.166480e-03	3.297370e-04	6	5.102640e-02	5.102370e-03	4	false	GAMG	5.999600e-02	2.302710e-04	6	true
55            	smoothSolver	4.118530e-03	3.267610e-04	6	5.426040e-02	4.863870e-03	4	false	GAMG	6.591970e-02	6.500340e-04	5	true
56            	smoothSolver	4.073730e-03	3.239480e-04	6	5.160010e-02	3.267940e-03	5	false	GAMG	6.318710e-02	3.183810e-04	6	true
57            	smoothSolver	4.031140e-03	3.212450e-04	6	4.729030e-02	4.314790e-03	4	false	GAMG	6.145560e-02	2.309200e-04	6	true
58            	smoothSolver	3.989460e-03	3.185730e-04	6	4.705730e-02	4.082910e-03	4	false	GAMG	6.643200e-02	3.858640e-04	6	true
59            	smoothSolver	3.953120e-03	3.162620e-04	6	4.986160e-02	4.431090e-03	4	false	GAMG	6.847780e-02	3.022680e-04	6	true
60            	smoothSolver	3.917560e-03	3.140070e-04	6	4.381340e-02	3.768610e-03	4	false	GAMG	6.205870e-02	4.743450e-04	5	true
61            	smoothSolver	3.883830e-03	3.119140e-04	6	4.189040e-02	3.826440e-03	4	false	GAMG	6.316230e-02	4.770800e-04	5	true
62            	smoothSolver	3.851930e-03	3.099230e-04	6	4.539680e-02	3.822610e-03	4	false	GAMG	6.302270e-02	3.392580e-04	5	true
63            	smoothSolver	3.820800e-03	3.079610e-04	6	4.457040e-02	3.816690e-03	4	false	GAMG	6.108270e-02	3.989530e-04	5	true
64            	smoothSolver	3.790290e-03	3.060610e-04	6	4.859090e-02	4.033910e-03	4	false	GAMG	6.173330e-02	4.933750e-04	4	true
65            	smoothSolver	3.761260e-03	3.042210e-04	6	5.047190e-02	3.744220e-03	4	false	GAMG	6.483870e-02	3.923200e-04	5	true
66            	smoothSolver	3.732120e-03	3.023360e-04	6	4.688780e-02	4.611140e-03	4	false	GAMG	6.760130e-02	3.303240e-04	6	true
67            	smoothSolver	3.705060e-03	3.005850e-04	6	4.228880e-02	4.064030e-03	4	false	GAMG	6.321590e-02	5.553420e-04	5	true
68            	smoothSolver	3.679160e-03	2.988490e-04	6	4.144800e-02	2.734110e-03	5	false	GAMG	6.577470e-02	6.535280e-04	5	true
69            	smoothSolver	3.652880e-03	2.970900e-04	6	4.027070e-02	2.675040e-03	5	false	GAMG	5.916980e-02	5.402510e-04	5	true
70            	smoothSolver	3.627620e-03	2.953670e-04	6	4.462780e-02	2.895050e-03	5	false	GAMG	7.825770e-02	7.214160e-04	5	true
71            	smoothSolver	3.603780e-03	2.937320e-04	6	4.108780e-02	2.805850e-03	5	false	GAMG	6.523960e-02	3.491840e-04	6	true
72            	smoothSolver	3.580840e-03	2.921290e-04	6	4.282050e-02	4.022810e-03	4	false	GAMG	6.860940e-02	5.824070e-04	5	true
73            	smoothSolver	3.558150e-03	2.905310e-04	6	4.929560e-02	4.668550e-03	4	false	GAMG	8.537110e-02	6.838340e-04	5	true
74            	smoothSolver	3.535910e-03	2.889240e-04	6	4.966420e-02	3.890060e-03	5	false	GAMG	7.714040e-02	5.423360e-04	6	true
75            	smoothSolver	3.514470e-03	2.874070e-04	6	4.801930e-02	4.800420e-03	4	false	GAMG	7.904650e-02	7.215680e-04	5	true
76            	smoothSolver	3.493110e-03	2.858800e-04	6	5.110290e-02	4.788980e-03	4	false	GAMG	8.285390e-02	6.325840e-04	5	true
77            	smoothSolver	3.472470e-03	2.844140e-04	6	4.749390e-02	3.098070e-03	5	false	GAMG	9.250560e-02	4.399390e-04	6	true
78            	smoothSolver	3.451790e-03	2.829010e-04	6	4.753660e-02	3.298700e-03	5	false	GAMG	8.855820e-02	4.147030e-04	6	true
79            	smoothSolver	3.431930e-03	2.814540e-04	6	4.433600e-02	4.231980e-03	4	false	GAMG	8.240760e-02	5.294960e-04	5	true
80            	smoothSolver	3.411380e-03	2.799570e-04	6	4.764370e-02	3.446060e-03	5	false	GAMG	9.249680e-02	7.486510e-04	5	true
81            	smoothSolver	3.391950e-03	2.784860e-04	6	5.146880e-02	4.757700e-03	4	false	GAMG	9.022530e-02	4.400540e-04	6	true
82            	smoothSolver	3.372650e-03	2.770140e-04	6	5.014080e-02	4.880410e-03	4	false	GAMG	9.515110e-02	8.313600e-04	5	true
83            	smoothSolver	3.353300e-03	2.755040e-04	6	4.723860e-02	4.650900e-03	4	false	GAMG	8.871260e-02	7.646310e-04	5	true
84            	smoothSolver	3.334500e-03	2.739970e-04	6	5.367090e-02	3.485290e-03	5	false	GAMG	8.565270e-02	8.104290e-04	5	true
85            	smoothSolver	3.315870e-03	2.725430e-04	6	5.141830e-02	4.988580e-03	4	false	GAMG	9.247010e-02	7.294300e-04	5	true
86            	smoothSolver	3.297120e-03	2.710110e-04	6	4.924470e-02	4.896620e-03	4	false	GAMG	1.045790e-01	6.770170e-04	5	true
87            	smoothSolver	3.277720e-03	2.694540e-04	6	5.097710e-02	4.813480e-03	4	false	GAMG	9.258740e-02	4.803870e-04	5	true
88            	smoothSolver	3.259360e-03	2.679430e-04	6	5.031030e-02	3.611510e-03	5	false	GAMG	8.656150e-02	3.990920e-04	6	true
89            	smoothSolver	3.240310e-03	2.663990e-04	6	4.613190e-02	3.266230e-03	5	false	GAMG	9.235510e-02	6.044020e-04	6	true
90            	smoothSolver	3.221340e-03	2.648320e-04	6	4.883580e-02	3.148020e-03	5	false	GAMG	8.274320e-02	8.050130e-04	5	true
91            	smoothSolver	3.202110e-03	2.632360e-04	6	4.711420e-02	3.117830e-03	5	false	GAMG	8.667890e-02	5.529840e-04	5	true
92            	smoothSolver	3.182460e-03	2.616140e-04	6	5.293260e-02	3.615580e-03	5	false	GAMG	8.200070e-02	7.361560e-04	5	true
93            	smoothSolver	3.163890e-03	2.600250e-04	6	5.677370e-02	4.849510e-03	4	false	GAMG	8.989150e-02	6.755760e-04	5	true
94            	smoothSolver	3.144220e-03	2.584100e-04	6	5.540720e-02	4.779850e-03	4	false	GAMG	8.315160e-02	3.679600e-04	6	true
95            	smoothSolver	3.124940e-03	2.567470e-04	6	6.350210e-02	5.819990e-03	4	false	GAMG	8.644940e-02	5.302750e-04	5	true
96            	smoothSolver	3.105340e-03	2.550720e-04	6	6.427930e-02	5.654450e-03	4	false	GAMG	8.459110e-02	6.239600e-04	5	true
97            	smoothSolver	3.086520e-03	2.534830e-04	6	6.232610e-02	5.696220e-03	4	false	GAMG	8.879650e-02	6.067130e-04	5	true
98            	smoothSolver	3.066970e-03	2.518150e-04	6	5.961360e-02	5.540480e-03	4	false	GAMG	8.279900e-02	6.595120e-04	5	true
99            	smoothSolver	3.046720e-03	2.500920e-04	6	6.386140e-02	5.148900e-03	4	false	GAMG	8.475810e-02	5.669790e-04	5	true
100           	smoothSolver	3.026410e-03	2.483480e-04	6	6.102260e-02	4.870540e-03	4	false	GAMG	8.092260e-02	4.049890e-04	6	true
101           	smoothSolver	3.006100e-03	2.465930e-04	6	5.618590e-02	4.771690e-03	4	false	GAMG	6.895090e-02	5.954070e-04	5	true
102           	smoothSolver	2.986210e-03	2.448670e-04	6	6.184050e-02	4.818350e-03	4	false	GAMG	8.196040e-02	6.586280e-04	5	true
103           	smoothSolver	2.965400e-03	2.430830e-04	6	6.640440e-02	5.004250e-03	4	false	GAMG	8.541820e-02	6.551570e-04	4	true
104           	smoothSolver	2.945110e-03	2.413070e-04	6	6.760180e-02	5.274560e-03	4	false	GAMG	7.924860e-02	5.596730e-04	5	true
105           	smoothSolver	2.923740e-03	2.394530e-04	6	7.241890e-02	6.276500e-03	4	false	GAMG	8.682950e-02	8.611880e-04	4	true
106           	smoothSolver	2.903380e-03	2.376500e-04	6	7.725700e-02	6.234790e-03	4	false	GAMG	8.615730e-02	8.538360e-04	4	true
107           	smoothSolver	2.882630e-03	2.358550e-04	6	8.157960e-02	6.096300e-03	4	false	GAMG	9.549180e-02	9.502520e-04	4	true
108           	smoothSolver	2.860970e-03	2.339720e-04	6	8.860120e-02	6.405120e-03	4	false	GAMG	9.575300e-02	8.077230e-04	5	true
109           	smoothSolver	2.839620e-03	2.320960e-04	6	8.551640e-02	5.604530e-03	4	false	GAMG	9.328200e-02	8.464850e-04	4	true
110           	smoothSolver	2.817970e-03	2.302020e-04	6	9.215190e-02	5.814920e-03	4	false	GAMG	8.886880e-02	6.101710e-04	5	true
111           	smoothSolver	2.795920e-03	2.282660e-04	6	9.586290e-02	6.588820e-03	4	false	GAMG	1.002330e-01	9.359970e-04	5	true
112           	smoothSolver	2.774190e-03	2.263530e-04	6	1.050930e-01	6.405850e-03	4	false	GAMG	9.491130e-02	6.762780e-04	5	true
113           	smoothSolver	2.751830e-03	2.244000e-04	6	1.078550e-01	6.881770e-03	4	false	GAMG	1.027740e-01	5.675280e-04	5	true
114           	smoothSolver	2.730110e-03	2.224910e-04	6	1.086540e-01	7.368040e-03	4	false	GAMG	1.039590e-01	6.205940e-04	5	true
115           	smoothSolver	2.707580e-03	2.205150e-04	6	1.179920e-01	1.149640e-02	3	false	GAMG	9.780440e-02	9.355430e-04	5	true
116           	smoothSolver	2.684890e-03	2.185410e-04	6	1.296160e-01	1.162780e-02	3	false	GAMG	1.213090e-01	7.083230e-04	5	true
117           	smoothSolver	2.661670e-03	2.165050e-04	6	1.414660e-01	1.212500e-02	3	false	GAMG	1.231980e-01	6.858440e-04	5	true
118           	smoothSolver	2.638900e-03	2.144980e-04	6	1.536750e-01	1.263900e-02	3	false	GAMG	1.193690e-01	1.166160e-03	4	true
119           	smoothSolver	2.616110e-03	2.124880e-04	6	1.501070e-01	1.475280e-02	3	false	GAMG	1.199020e-01	7.356920e-04	5	true
120           	smoothSolver	2.593080e-03	2.104930e-04	6	1.636870e-01	1.317620e-02	3	false	GAMG	1.249680e-01	5.461340e-04	5	true
121           	smoothSolver	2.570110e-03	2.085000e-04	6	1.590180e-01	1.303590e-02	3	false	GAMG	1.204220e-01	1.056900e-03	4	true
122           	smoothSolver	2.546460e-03	2.064170e-04	6	1.839410e-01	1.627910e-02	3	false	GAMG	1.392270e-01	8.082350e-04	5	true
123           	smoothSolver	2.523340e-03	2.043590e-04	6	1.893170e-01	1.508890e-02	3	false	GAMG	1.300220e-01	9.516960e-04	5	true
124           	smoothSolver	2.499590e-03	2.022880e-04	6	1.890340e-01	1.564290e-02	3	false	GAMG	1.284510e-01	9.328880e-04	5	true
125           	smoothSolver	2.476340e-03	2.002410e-04	6	2.059030e-01	1.470820e-02	3	false	GAMG	1.376130e-01	1.310540e-03	5	true
126           	smoothSolver	2.451970e-03	1.981370e-04	6	2.164100e-01	1.560280e-02	3	false	GAMG	1.441720e-01	6.816010e-04	5	true
127           	smoothSolver	2.428740e-03	1.960950e-04	6	2.205720e-01	1.379860e-02	3	false	GAMG	1.385620e-01	1.342850e-03	4	true
128           	smoothSolver	2.404310e-03	1.940090e-04	6	2.251660e-01	1.746340e-02	3	false	GAMG	1.527820e-01	1.492860e-03	4	true
129           	smoothSolver	2.380310e-03	1.919130e-04	6	2.319840e-01	1.607950e-02	3	false	GAMG	1.487740e-01	7.529860e-04	5	true
130           	smoothSolver	2.356870e-03	1.898300e-04	6	2.498470e-01	1.846110e-02	3	false	GAMG	1.701460e-01	1.016960e-03	5	true
131           	smoothSolver	2.332290e-03	1.877240e-04	6	2.599820e-01	1.665190e-02	3	false	GAMG	1.543040e-01	1.038470e-03	5	true
132           	smoothSolver	2.309000e-03	1.856720e-04	6	2.474110e-01	1.983250e-02	3	false	GAMG	1.611610e-01	9.372020e-04	5	true
133           	smoothSolver	2.284550e-03	1.835650e-04	6	2.596920e-01	1.682450e-02	3	false	GAMG	1.564840e-01	1.395870e-03	4	true
134           	smoothSolver	2.259320e-03	1.814340e-04	6	2.563660e-01	1.778390e-02	3	false	GAMG	1.718910e-01	1.712240e-03	4	true
135           	smoothSolver	2.235790e-03	1.793380e-04	6	2.503950e-01	1.397150e-02	3	false	GAMG	1.698660e-01	1.543990e-03	4	true
136           	smoothSolver	2.211400e-03	1.772660e-04	6	2.706440e-01	1.670580e-02	3	false	GAMG	1.651090e-01	1.120700e-03	5	true
137           	smoothSolver	2.186780e-03	1.751570e-04	6	2.852590e-01	1.878650e-02	3	false	GAMG	1.745170e-01	1.627780e-03	4	true
138           	smoothSolver	2.162950e-03	1.730930e-04	6	2.799340e-01	1.696260e-02	3	false	GAMG	1.781810e-01	9.148280e-04	5	true
139           	smoothSolver	2.138300e-03	1.709660e-04	6	2.966910e-01	1.664960e-02	3	false	GAMG	1.916040e-01	1.879850e-03	4	true
140           	smoothSolver	2.113510e-03	1.688370e-04	6	3.166010e-01	2.007600e-02	3	false	GAMG	1.945050e-01	8.367720e-04	5	true
141           	smoothSolver	2.089010e-03	1.667180e-04	6	3.312580e-01	2.098940e-02	3	false	GAMG	2.034620e-01	9.571790e-04	5	true
142           	smoothSolver	2.065920e-03	1.647360e-04	6	3.236540e-01	2.027200e-02	3	false	GAMG	1.843990e-01	1.686130e-03	4	true
143           	smoothSolver	2.042620e-03	1.627280e-04	6	3.244070e-01	2.354150e-02	3	false	GAMG	1.911520e-01	8.957070e-04	5	true
144           	smoothSolver	2.019060e-03	1.606420e-04	6	3.048130e-01	2.116140e-02	3	false	GAMG	1.807210e-01	1.598330e-03	4	true
145           	smoothSolver	1.994460e-03	1.585240e-04	6	3.455400e-01	2.600000e-02	3	false	GAMG	2.112530e-01	1.639520e-03	5	true
146           	smoothSolver	1.970130e-03	1.564070e-04	6	3.344400e-01	2.388990e-02	3	false	GAMG	1.871610e-01	1.220580e-03	5	true
147           	smoothSolver	1.946200e-03	1.543360e-04	6	3.343070e-01	1.817540e-02	3	false	GAMG	1.789320e-01	1.231650e-03	5	true
148           	smoothSolver	1.921650e-03	1.522120e-04	6	3.577460e-01	1.982810e-02	3	false	GAMG	1.862390e-01	9.381990e-04	5	true
149           	smoothSolver	1.896350e-03	1.500540e-04	6	3.804020e-01	2.190190e-02	3	false	GAMG	1.903250e-01	1.842580e-03	4	true
150           	smoothSolver	1.872090e-03	1.479340e-04	6	3.693440e-01	2.277600e-02	3	false	GAMG	2.078780e-01	2.052220e-03	4	true
151           	smoothSolver	1.847040e-03	1.458140e-04	6	3.626400e-01	2.280330e-02	3	false	GAMG	1.997110e-01	1.363880e-03	5	true
152           	smoothSolver	1.822590e-03	1.436860e-04	6	3.432620e-01	2.195970e-02	3	false	GAMG	1.932590e-01	9.432880e-04	5	true
153           	smoothSolver	1.797950e-03	1.415860e-04	6	3.843660e-01	2.310190e-02	3	false	GAMG	2.128980e-01	1.077410e-03	5	true
154           	smoothSolver	1.774050e-03	1.395390e-04	6	3.787910e-01	2.365490e-02	3	false	GAMG	2.142780e-01	1.949020e-03	4	true
155           	smoothSolver	1.750170e-03	1.375000e-04	6	3.690560e-01	2.162180e-02	3	false	GAMG	2.170300e-01	1.567630e-03	5	true
156           	smoothSolver	1.724810e-03	1.353290e-04	6	3.698030e-01	2.853290e-02	3	false	GAMG	1.930800e-01	1.257070e-03	5	true
157           	smoothSolver	1.700750e-03	1.332450e-04	6	4.031670e-01	2.940190e-02	3	false	GAMG	2.135340e-01	1.611850e-03	5	true
158           	smoothSolver	1.677110e-03	1.312030e-04	6	3.871590e-01	2.580070e-02	3	false	GAMG	1.846140e-01	1.108940e-03	5	true
159           	smoothSolver	1.654100e-03	1.292190e-04	6	4.388070e-01	3.182620e-02	3	false	GAMG	2.313850e-01	1.480610e-03	5	true
160           	smoothSolver	1.630550e-03	1.272120e-04	6	3.978460e-01	2.708280e-02	3	false	GAMG	2.325370e-01	1.111620e-03	5	true
161           	smoothSolver	1.605850e-03	1.251420e-04	6	4.045390e-01	2.667340e-02	3	false	GAMG	2.224520e-01	1.413550e-03	5	true
162           	smoothSolver	1.583040e-03	1.230820e-04	6	3.918560e-01	2.698620e-02	3	false	GAMG	1.955900e-01	1.307800e-03	5	true
163           	smoothSolver	1.559160e-03	1.210810e-04	6	4.131480e-01	2.624500e-02	3	false	GAMG	1.921390e-01	1.182280e-03	5	true
164           	smoothSolver	1.536920e-03	1.190990e-04	6	4.387290e-01	2.587220e-02	3	false	GAMG	2.274830e-01	1.509660e-03	5	true
165           	smoothSolver	1.514200e-03	1.171740e-04	6	4.549290e-01	2.972200e-02	3	false	GAMG	2.277490e-01	1.367960e-03	5	true
166           	smoothSolver	1.493660e-03	1.152830e-04	6	4.629200e-01	3.734180e-02	3	false	GAMG	2.467810e-01	1.527240e-03	5	true
167           	smoothSolver	1.467430e-03	1.132080e-04	6	4.293320e-01	3.093140e-02	3	false	GAMG	2.145330e-01	1.215610e-03	5	true
168           	smoothSolver	1.445370e-03	1.113810e-04	6	4.552890e-01	3.276310e-02	3	false	GAMG	2.192500e-01	1.737150e-03	5	true
169           	smoothSolver	1.425710e-03	1.096310e-04	6	4.370030e-01	2.914420e-02	3	false	GAMG	2.031950e-01	1.159300e-03	5	true
170           	smoothSolver	1.404110e-03	1.078360e-04	6	4.278700e-01	2.374210e-02	3	false	GAMG	1.906780e-01	1.763540e-03	4	true
171           	smoothSolver	1.384460e-03	1.061520e-04	6	4.370710e-01	2.495070e-02	3	false	GAMG	1.993590e-01	1.849150e-03	4	true
172           	smoothSolver	1.364680e-03	1.044840e-04	6	4.729000e-01	2.601270e-02	3	false	GAMG	2.017920e-01	1.841300e-03	4	true
173           	smoothSolver	1.341220e-03	1.025920e-04	6	4.757580e-01	3.001300e-02	3	false	GAMG	2.196340e-01	1.504220e-03	5	true
174           	smoothSolver	1.321820e-03	1.008980e-04	6	4.749750e-01	3.324350e-02	3	false	GAMG	2.140510e-01	1.671370e-03	5	true
175           	smoothSolver	1.300820e-03	9.913130e-05	6	4.788840e-01	3.495190e-02	3	false	GAMG	2.163500e-01	1.429430e-03	5	true
176           	smoothSolver	1.281320e-03	9.746550e-05	6	4.815780e-01	3.647350e-02	3	false	GAMG	2.303900e-01	1.135770e-03	5	true
177           	smoothSolver	1.261460e-03	9.578930e-05	6	4.848320e-01	3.876510e-02	3	false	GAMG	2.341240e-01	1.528730e-03	5	true
178           	smoothSolver	1.239730e-03	9.404430e-05	6	4.463650e-01	3.213340e-02	3	false	GAMG	2.123600e-01	1.285250e-03	5	true
179           	smoothSolver	1.220740e-03	9.237270e-05	6	4.873710e-01	3.463660e-02	3	false	GAMG	2.228950e-01	1.022710e-03	5	true
180           	smoothSolver	1.201840e-03	9.078240e-05	6	4.957150e-01	3.506740e-02	3	false	GAMG	2.354020e-01	1.928810e-03	5	true
181           	smoothSolver	1.184220e-03	8.920240e-05	6	4.981500e-01	3.276530e-02	3	false	GAMG	2.588080e-01	2.524530e-03	4	true
182           	smoothSolver	1.165070e-03	8.761050e-05	6	4.591120e-01	2.945710e-02	3	false	GAMG	2.591190e-01	1.269200e-03	5	true
183           	smoothSolver	1.147990e-03	8.609360e-05	6	4.777980e-01	3.380580e-02	3	false	GAMG	2.327680e-01	1.764520e-03	5	true
184           	smoothSolver	1.127260e-03	8.445010e-05	6	4.802760e-01	3.222260e-02	3	false	GAMG	2.457350e-01	1.690530e-03	5	true
185           	smoothSolver	1.109950e-03	8.289560e-05	6	4.911990e-01	3.184110e-02	3	false	GAMG	2.523400e-01	1.661550e-03	5	true
186           	smoothSolver	1.089960e-03	8.134220e-05	6	5.084810e-01	2.528630e-02	3	false	GAMG	2.632270e-01	2.469470e-03	4	true
187           	smoothSolver	1.072230e-03	7.977490e-05	6	4.985310e-01	2.872440e-02	3	false	GAMG	2.452840e-01	1.713500e-03	5	true
188           	smoothSolver	1.056020e-03	7.840400e-05	6	5.214900e-01	2.541440e-02	3	false	GAMG	2.669080e-01	1.356310e-03	5	true
189           	smoothSolver	1.038290e-03	7.701300e-05	6	4.627410e-01	2.829340e-02	3	false	GAMG	2.187040e-01	1.026560e-03	5	true
190           	smoothSolver	1.023180e-03	7.557430e-05	6	4.640200e-01	3.160730e-02	3	false	GAMG	2.271700e-01	1.169320e-03	5	true
191           	smoothSolver	1.003990e-03	7.414690e-05	6	4.854190e-01	3.499320e-02	3	false	GAMG	2.334250e-01	1.000310e-03	6	true
192           	smoothSolver	9.891690e-04	7.282920e-05	6	4.830550e-01	3.020160e-02	3	false	GAMG	2.348070e-01	1.415060e-03	5	true
193           	smoothSolver	9.711110e-04	7.132400e-05	6	4.818340e-01	3.467590e-02	3	false	GAMG	2.244580e-01	1.752020e-03	5	true
194           	smoothSolver	9.535990e-04	6.991150e-05	6	4.889970e-01	3.176960e-02	3	false	GAMG	1.966360e-01	1.358530e-03	5	true
195           	smoothSolver	9.395070e-04	6.865300e-05	6	5.068280e-01	2.691090e-02	3	false	GAMG	2.313700e-01	2.222580e-03	4	true
196           	smoothSolver	9.253190e-04	6.741630e-05	6	4.447270e-01	2.537460e-02	3	false	GAMG	2.207850e-01	1.183730e-03	5	true
197           	smoothSolver	9.089080e-04	6.616330e-05	6	4.692250e-01	2.974590e-02	3	false	GAMG	2.274040e-01	2.247470e-03	4	true
198           	smoothSolver	8.931380e-04	6.481550e-05	6	4.971880e-01	3.094450e-02	3	false	GAMG	2.323220e-01	1.729630e-03	5	true
199           	smoothSolver	8.759350e-04	6.354910e-05	6	4.746460e-01	3.409610e-02	3	false	GAMG	2.368560e-01	1.895800e-03	5	true
200           	smoothSolver	8.617590e-04	6.227800e-05	6	4.836240e-01	3.491590e-02	3	false	GAMG	2.473940e-01	1.430560e-03	5	true
201           	smoothSolver	8.456170e-04	6.107750e-05	6	4.997710e-01	3.738600e-02	3	false	GAMG	2.377610e-01	1.932670e-03	5	true
202           	smoothSolver	8.303570e-04	5.987330e-05	6	4.873890e-01	2.912750e-02	3	false	GAMG	2.303480e-01	2.255080e-03	4	true
203           	smoothSolver	8.166660e-04	5.866420e-05	6	4.669940e-01	2.596230e-02	3	false	GAMG	2.367450e-01	2.213960e-03	4	true
204           	smoothSolver	8.014100e-04	5.746250e-05	6	5.126860e-01	3.141820e-02	3	false	GAMG	2.311090e-01	1.107380e-03	5	true
205           	smoothSolver	7.874050e-04	5.629880e-05	6	4.770860e-01	2.668150e-02	3	false	GAMG	2.373820e-01	2.138890e-03	5	true
206           	smoothSolver	7.734000e-04	5.521980e-05	6	5.438450e-01	3.213430e-02	3	false	GAMG	2.407990e-01	1.848450e-03	5	true
207           	smoothSolver	7.586240e-04	5.406760e-05	6	4.978410e-01	2.933660e-02	3	false	GAMG	2.396690e-01	1.520150e-03	5	true
208           	smoothSolver	7.450170e-04	5.291700e-05	6	5.097120e-01	2.995320e-02	3	false	GAMG	2.281920e-01	1.433190e-03	5	true
209           	smoothSolver	7.305950e-04	5.185620e-05	6	5.186480e-01	2.903730e-02	3	false	GAMG	2.342580e-01	1.294720e-03	5	true
210           	smoothSolver	7.187480e-04	5.083540e-05	6	4.827250e-01	3.272660e-02	3	false	GAMG	2.324420e-01	1.705120e-03	5	true
211           	smoothSolver	7.066410e-04	4.991640e-05	6	4.928190e-01	2.925620e-02	3	false	GAMG	2.332930e-01	1.243800e-03	5	true
212           	smoothSolver	6.939380e-04	4.894020e-05	6	4.588000e-01	2.861960e-02	3	false	GAMG	2.464400e-01	1.700770e-03	5	true
213           	smoothSolver	6.814860e-04	4.799870e-05	6	4.612630e-01	2.584570e-02	3	false	GAMG	2.432440e-01	1.395670e-03	5	true
214           	smoothSolver	6.698570e-04	4.701690e-05	6	4.825760e-01	3.372210e-02	3	false	GAMG	2.195740e-01	1.455690e-03	5	true
215           	smoothSolver	6.565340e-04	4.604470e-05	6	4.455680e-01	3.082220e-02	3	false	GAMG	2.203650e-01	1.125870e-03	5	true
216           	smoothSolver	6.469890e-04	4.517790e-05	6	4.672990e-01	2.758470e-02	3	false	GAMG	2.099230e-01	9.839390e-04	5	true
217           	smoothSolver	6.361490e-04	4.433740e-05	6	4.938380e-01	2.983410e-02	3	false	GAMG	2.352190e-01	1.099450e-03	5	true
218           	smoothSolver	6.254140e-04	4.352790e-05	6	4.709590e-01	3.347690e-02	3	false	GAMG	2.637840e-01	2.097850e-03	5	true
219           	smoothSolver	6.160110e-04	4.276270e-05	6	4.652220e-01	2.558650e-02	3	false	GAMG	2.466640e-01	1.166520e-03	5	true
220           	smoothSolver	6.039350e-04	4.179930e-05	6	4.538800e-01	3.416840e-02	3	false	GAMG	2.406800e-01	1.778630e-03	5	true
221           	smoothSolver	5.943650e-04	4.101010e-05	6	4.708360e-01	2.310580e-02	3	false	GAMG	2.566100e-01	2.301240e-03	5	true
222           	smoothSolver	5.814470e-04	4.013700e-05	6	4.547000e-01	2.952990e-02	3	false	GAMG	2.260090e-01	1.178710e-03	5	true
223           	smoothSolver	5.702550e-04	3.926320e-05	6	5.114630e-01	3.244750e-02	3	false	GAMG	2.269820e-01	1.508280e-03	5	true
224           	smoothSolver	5.589960e-04	3.834300e-05	6	5.118360e-01	2.925240e-02	3	false	GAMG	2.448600e-01	1.356370e-03	5	true
225           	smoothSolver	5.521570e-04	3.773660e-05	6	5.185850e-01	2.981910e-02	3	false	GAMG	2.531680e-01	1.624950e-03	5	true
226           	smoothSolver	5.420970e-04	3.700150e-05	6	5.138460e-01	2.590840e-02	3	false	GAMG	2.413960e-01	1.245820e-03	5	true
227           	smoothSolver	5.325410e-04	3.629680e-05	6	4.949220e-01	2.752520e-02	3	false	GAMG	2.342490e-01	1.348860e-03	5	true
228           	smoothSolver	5.197180e-04	3.547480e-05	6	4.729930e-01	2.347270e-02	3	false	GAMG	2.170220e-01	1.249920e-03	5	true
229           	smoothSolver	5.125790e-04	3.483860e-05	6	4.825570e-01	3.057040e-02	3	false	GAMG	2.231820e-01	1.352310e-03	5	true
230           	smoothSolver	5.037010e-04	3.419620e-05	6	4.951320e-01	2.989130e-02	3	false	GAMG	2.394370e-01	1.741080e-03	5	true
231           	smoothSolver	4.934830e-04	3.349260e-05	6	4.962980e-01	2.674610e-02	3	false	GAMG	2.323550e-01	1.300130e-03	5	true
232           	smoothSolver	4.842360e-04	3.287630e-05	6	4.675030e-01	2.640140e-02	3	false	GAMG	2.178730e-01	1.373510e-03	5	true