y,epsilon,k,nut,U_0,U_1,U_2
0.000567512,8.28127e-05,5.43151e-06,1.20684e-09,0.0157842,-4.64336e-10,0
0.000851268,0.000124214,8.14721e-06,1.81025e-09,0.0236763,-6.96504e-10,0
0.00113502,0.000165618,1.08631e-05,2.41371e-09,0.0315683,-1.00703e-09,0
0.00174332,0.000286156,2.89838e-05,9.94462e-09,0.048187,-2.16621e-09,-9.59453e-24
0.00235161,0.000406698,4.71051e-05,1.74758e-08,0.0648057,-3.61942e-09,-1.55547e-23
0.00267761,0.00049158,6.7189e-05,3.05529e-08,0.0736979,-4.5704e-09,-1.04528e-23
0.00300362,0.000576463,8.72729e-05,4.36299e-08,0.0825901,-5.52139e-09,-5.35097e-24
0.00332962,0.000661346,0.000107357,5.6707e-08,0.0914823,-6.47237e-09,-2.49091e-25
0.00470391,0.00110168,0.000239465,1.76542e-07,0.128902,-1.19015e-08,1.53797e-23
0.00916136,0.00367034,0.0013016,2.64987e-06,0.248799,-3.44638e-08,0
0.0147607,0.00939344,0.00409666,2.69587e-05,0.384729,-7.19436e-08,0
0.0152906,0.00994363,0.00438789,3.11821e-05,0.396034,-7.46554e-08,0
0.0158205,0.0104938,0.00467911,3.54055e-05,0.40734,-8.39919e-08,0
0.0161045,0.0107093,0.00481399,3.8408e-05,0.412558,-8.59122e-08,0
0.0163884,0.0109249,0.00494886,4.14106e-05,0.417776,-8.78326e-08,0
0.0175244,0.011787,0.00548835,5.34206e-05,0.43865,-9.55139e-08,0
0.0218326,0.0132907,0.00698642,0.000108812,0.503643,-1.34306e-07,0
0.0224851,0.0133453,0.00715583,0.000118125,0.512077,-1.38773e-07,0
0.0231376,0.0133998,0.00732523,0.000127437,0.520512,-1.43578e-07,0
0.0245365,0.0132292,0.00757001,0.000149268,0.535613,-1.50629e-07,-6.39942e-23
0.0259353,0.0130586,0.0078148,0.000171098,0.550714,-1.55946e-07,-1.06058e-22
0.0274347,0.0127144,0.0079846,0.000196119,0.564291,-1.59733e-07,-4.80642e-23
0.0289341,0.0123701,0.00815441,0.000221139,0.577868,-1.60245e-07,-9.94497e-24
0.0293359,0.0122619,0.00818269,0.000228183,0.58094,-1.60149e-07,6.055e-24
0.0297376,0.0121537,0.00821098,0.000235226,0.584013,-1.60052e-07,2.2055e-23
0.0305412,0.0119372,0.00826755,0.000249313,0.590157,-1.59859e-07,5.40549e-23
0.0308626,0.0118506,0.00829018,0.000254948,0.592615,-1.59782e-07,6.68549e-23
0.0311841,0.0117641,0.00831281,0.000260583,0.595073,-1.59705e-07,7.96549e-23
0.0374399,0.0101162,0.00856472,0.000374248,0.635181,-1.31625e-07,-5.86374e-23
0.0383631,0.00988609,0.00858528,0.00039137,0.640337,-1.27016e-07,-8.79561e-23
0.0392863,0.00965601,0.00860585,0.000408493,0.645493,-1.17935e-07,-1.02202e-22
0.0412654,0.00921887,0.00862499,0.000445617,0.655056,-1.05147e-07,-8.94316e-23
0.0432445,0.00878172,0.00864414,0.00048274,0.66462,-8.83595e-08,-6.97339e-23
0.0453658,0.0083766,0.00864728,0.000522633,0.673559,-7.31016e-08,2.84516e-23
0.0608271,0.00610781,0.00856253,0.000809438,0.72672,3.70215e-08,0
0.0614802,0.00603225,0.00855654,0.000821354,0.728624,4.10982e-08,0
0.0621332,0.00595669,0.00855055,0.000833269,0.730527,4.51748e-08,0
0.0649332,0.00568465,0.00852143,0.000883391,0.737833,5.74029e-08,0
0.0663332,0.00554863,0.00850687,0.000908452,0.741486,6.35169e-08,0
0.0677332,0.0054126,0.00849231,0.000933513,0.745139,6.95039e-08,0
0.0707343,0.00516783,0.00845908,0.000986051,0.752184,7.83525e-08,0
0.0737355,0.00492305,0.00842585,0.00103859,0.759228,8.6145e-08,0
0.0769523,0.00470267,0.00838922,0.0010935,0.766052,9.09731e-08,0
0.0801692,0.00448229,0.00835259,0.00114842,0.772875,9.39213e-08,0
0.0836172,0.00428362,0.00831302,0.00120568,0.779511,9.43025e-08,0
0.0870652,0.00408495,0.00827347,0.00126294,0.786146,9.23233e-08,0
0.090761,0.00390555,0.00823127,0.00132251,0.792622,8.80921e-08,-1.08361e-22
0.0944567,0.00372616,0.00818908,0.00138208,0.799099,8.1728e-08,-1.89406e-22
0.0984181,0.00356387,0.00814442,0.00144392,0.80544,7.35111e-08,-8.38624e-23
0.102379,0.00340158,0.00809977,0.00150576,0.81178,6.40698e-08,-4.92462e-24
0.106625,0.00325448,0.00805272,0.00156981,0.818006,5.3438e-08,2.213e-24
0.110871,0.00310737,0.00800567,0.00163387,0.824232,4.26355e-08,1.59276e-23
0.115423,0.00297376,0.00795622,0.00170007,0.830361,3.13127e-08,9.23337e-24
0.119974,0.00284015,0.00790678,0.00176628,0.83649,2.07522e-08,-3.95336e-24
0.124852,0.00271855,0.00785489,0.00183455,0.842536,1.00311e-08,9.74246e-23
0.12973,0.00259695,0.00780299,0.00190283,0.848583,6.87775e-10,1.64863e-22
0.134959,0.00248605,0.00774855,0.00197306,0.85456,-8.88523e-09,6.58596e-23
0.140188,0.00237516,0.0076941,0.00204329,0.860537,-1.68834e-08,0
0.145792,0.00227383,0.00763696,0.00211536,0.866457,-2.51157e-08,0
0.151397,0.00217251,0.00757982,0.00218742,0.872377,-3.14065e-08,0
0.157404,0.00207975,0.00751982,0.00226114,0.878248,-3.75878e-08,0
0.163411,0.00198699,0.00745982,0.00233486,0.88412,-4.14253e-08,0
0.16985,0.00190192,0.00739677,0.00241004,0.889952,-4.41272e-08,0
0.176289,0.00181685,0.00733371,0.00248522,0.895785,-4.45129e-08,0
0.18319,0.00173868,0.00726738,0.0025616,0.901585,-4.3538e-08,0
0.190092,0.00166052,0.00720105,0.00263798,0.907385,-4.03113e-08,0
0.197489,0.00158858,0.00713121,0.00271527,0.913158,-3.6695e-08,0
0.204887,0.00151664,0.00706138,0.00279255,0.918932,-3.09918e-08,0
0.212816,0.00145031,0.00698779,0.00287041,0.924685,-2.60753e-08,0
0.220745,0.00138398,0.0069142,0.00294826,0.930438,-1.94009e-08,0
0.229244,0.00132273,0.00683659,0.00302627,0.936174,-1.4305e-08,0
0.237743,0.00126148,0.00675898,0.00310428,0.94191,-7.77054e-09,0
0.246853,0.00120483,0.00667709,0.00318198,0.947632,-2.71006e-09,0
0.255962,0.00114818,0.00659519,0.00325968,0.953354,3.23273e-09,0
0.265727,0.00109571,0.00650874,0.00333653,0.959063,7.41118e-09,0
0.275491,0.00104323,0.00642228,0.00341337,0.964773,1.21605e-08,0
0.285957,0.000994555,0.00633098,0.00348878,0.970471,1.48616e-08,0
0.296423,0.000945876,0.00623968,0.00356419,0.97617,1.78322e-08,0
0.307641,0.000900657,0.00614326,0.0036375,0.981855,1.83013e-08,0
0.318859,0.000855437,0.00604684,0.0037108,0.987541,1.87396e-08,0
0.330883,0.000813377,0.00594504,0.00378129,0.993212,1.77473e-08,4.40005e-23
0.342907,0.000771317,0.00584324,0.00385179,0.998883,1.67048e-08,6.60008e-23
0.355795,0.000732152,0.00573583,0.00391872,1.00453,1.48658e-08,2.36285e-23
0.368683,0.000692988,0.00562843,0.00398565,1.01018,1.30635e-08,2.44236e-24
0.382498,0.00065649,0.00551524,0.00404825,1.01581,1.1635e-08,-4.18417e-23
0.396312,0.000619992,0.00540206,0.00411085,1.02143,1.02214e-08,-6.39838e-23
0.411119,0.000585964,0.005283,0.00416837,1.02702,9.46672e-09,-2.13279e-23
0.425926,0.000551936,0.00516394,0.00422589,1.0326,8.93426e-09,0
0.441797,0.000520217,0.00503905,0.00427769,1.03814,8.81669e-09,-1.14785e-22
0.457668,0.000488497,0.00491416,0.00432949,1.04367,8.89064e-09,-2.10425e-22
0.47468,0.00045896,0.00478369,0.00437511,1.04913,9.14959e-09,-1.01064e-22
0.491692,0.000429423,0.00465321,0.00442073,1.05458,9.40227e-09,-9.94313e-24
0.509926,0.000401987,0.0045177,0.00446004,1.05994,9.14099e-09,1.06082e-22
0.52816,0.000374551,0.00438218,0.00449935,1.06529,8.82002e-09,2.02756e-22
0.547704,0.000349183,0.00424262,0.00453276,1.07051,8.57058e-09,9.21545e-23
0.567248,0.000323815,0.00410305,0.00456617,1.07572,8.05913e-09,0
0.588197,0.00030054,0.00396107,0.00459486,1.08074,7.59098e-09,0
0.609146,0.000277266,0.00381908,0.00462354,1.08576,6.92129e-09,0
0.6316,0.000256179,0.00367718,0.0046497,1.09051,6.65953e-09,0
0.654054,0.000235093,0.00353527,0.00467586,1.09527,6.1741e-09,0
0.678122,0.000216367,0.0033971,0.00470275,1.09967,5.75703e-09,0
0.70219,0.00019764,0.00325893,0.00472965,1.10407,5.18989e-09,0
0.727987,0.000181517,0.00312949,0.00476112,1.10801,4.60824e-09,0
0.753784,0.000165395,0.00300005,0.00479259,1.11195,3.88579e-09,0
0.781436,0.00015218,0.00288569,0.00483124,1.11529,3.54454e-09,0
0.809087,0.000138965,0.00277133,0.00486989,1.11863,2.85858e-09,0
0.838725,0.000128997,0.00267949,0.00491364,1.12123,2.48101e-09,9.7956e-23
0.868363,0.000119029,0.00258766,0.00495738,1.12382,1.85569e-09,1.71425e-22
0.900131,0.000112686,0.00252643,0.00499586,1.12551,1.34329e-09,8.77807e-23
0.931899,0.000106342,0.00246521,0.00503435,1.1272,7.9953e-10,2.50456e-23
0.965949,0.000104116,0.00244318,0.00505046,1.12781,4.36418e-10,-1.60923e-22
1,0.00010189,0.00242115,0.00506658,1.12841,0,-3.00404e-22
