# Solver information
# Time        	U_solver      	Ux_initial    	Ux_final      	Ux_iters      	Uy_initial    	Uy_final      	Uy_iters      	U_converged   	p_solver      	p_initial     	p_final       	p_iters       	p_converged   
1             	smoothSolver	0.000000e+00	0.000000e+00	0	0.000000e+00	0.000000e+00	0	false	GAMG	9.999940e-01	7.265530e-03	4	true
2             	smoothSolver	1.067890e-01	8.874390e-03	5	1.000000e+00	8.435040e-02	2	false	GAMG	1.000000e+00	7.810380e-03	3	true
3             	smoothSolver	3.175670e-02	2.901510e-03	3	5.671760e-01	3.436490e-02	2	false	GAMG	1.506610e-01	8.225190e-04	6	true
4             	smoothSolver	2.217220e-02	1.973070e-03	4	4.423300e-01	2.856630e-02	3	false	GAMG	1.634600e-01	1.138560e-03	5	true
5             	smoothSolver	1.666450e-02	1.175030e-03	5	4.323710e-01	2.988670e-02	3	false	GAMG	1.283980e-01	9.612290e-04	4	true
6             	smoothSolver	1.345040e-02	1.088090e-03	5	4.392330e-01	3.640810e-02	3	false	GAMG	1.170660e-01	9.031290e-04	4	true
7             	smoothSolver	1.134760e-02	1.012190e-03	5	4.184640e-01	2.594740e-02	4	false	GAMG	1.180030e-01	6.649580e-04	5	true
8             	smoothSolver	9.848290e-03	9.569920e-04	5	3.650590e-01	2.593930e-02	4	false	GAMG	1.081170e-01	6.524200e-04	5	true
9             	smoothSolver	8.875310e-03	5.950470e-04	6	3.075010e-01	2.587240e-02	4	false	GAMG	9.372050e-02	5.962780e-04	5	true
10            	smoothSolver	8.067100e-03	5.714160e-04	6	2.837470e-01	2.382730e-02	4	false	GAMG	9.574070e-02	5.285100e-04	5	true
11            	smoothSolver	7.467930e-03	5.555250e-04	6	2.731810e-01	2.382230e-02	4	false	GAMG	8.750660e-02	4.793980e-04	5	true
12            	smoothSolver	7.032270e-03	5.393010e-04	6	2.540020e-01	2.500380e-02	4	false	GAMG	8.380600e-02	4.733420e-04	5	true
13            	smoothSolver	6.812240e-03	5.258000e-04	6	2.535390e-01	2.370660e-02	4	false	GAMG	8.123910e-02	4.616880e-04	5	true
14            	smoothSolver	6.666510e-03	5.126580e-04	6	2.486180e-01	2.463560e-02	4	false	GAMG	8.271450e-02	5.614300e-04	5	true
15            	smoothSolver	6.567230e-03	5.033080e-04	6	2.435600e-01	2.377300e-02	4	false	GAMG	7.575570e-02	6.468900e-04	5	true
16            	smoothSolver	6.441130e-03	4.926820e-04	6	2.379080e-01	2.357490e-02	4	false	GAMG	7.506590e-02	3.457630e-04	6	true
17            	smoothSolver	6.360640e-03	4.855030e-04	6	2.276220e-01	2.149110e-02	4	false	GAMG	7.453130e-02	3.017930e-04	6	true
18            	smoothSolver	6.258560e-03	4.773190e-04	6	2.184850e-01	1.418140e-02	5	false	GAMG	7.264210e-02	5.259900e-04	5	true
19            	smoothSolver	6.156880e-03	4.687210e-04	6	2.165850e-01	1.411870e-02	5	false	GAMG	6.978680e-02	2.564740e-04	6	true
20            	smoothSolver	6.076070e-03	4.622200e-04	6	2.093670e-01	1.393210e-02	5	false	GAMG	7.038490e-02	2.780470e-04	6	true
21            	smoothSolver	5.999230e-03	4.570730e-04	6	2.126920e-01	1.415440e-02	5	false	GAMG	6.978560e-02	5.167600e-04	5	true
22            	smoothSolver	5.918150e-03	4.509500e-04	6	2.027750e-01	2.026170e-02	4	false	GAMG	7.254270e-02	5.258480e-04	5	true
23            	smoothSolver	5.857880e-03	4.464320e-04	6	2.238180e-01	2.048660e-02	4	false	GAMG	7.152720e-02	4.796240e-04	5	true
24            	smoothSolver	5.785730e-03	4.410800e-04	6	2.115150e-01	1.990400e-02	4	false	GAMG	6.890220e-02	6.188670e-04	5	true
25            	smoothSolver	5.729130e-03	4.373020e-04	6	2.152330e-01	1.869570e-02	4	false	GAMG	7.181040e-02	5.644730e-04	5	true
26            	smoothSolver	5.662210e-03	4.323750e-04	6	2.211970e-01	2.061220e-02	4	false	GAMG	7.349890e-02	7.312630e-04	5	true
27            	smoothSolver	5.605520e-03	4.283910e-04	6	2.171970e-01	1.971160e-02	4	false	GAMG	6.941150e-02	3.874650e-04	5	true
28            	smoothSolver	5.550770e-03	4.250370e-04	6	2.197230e-01	2.002500e-02	4	false	GAMG	7.609230e-02	3.930950e-04	5	true
29            	smoothSolver	5.496820e-03	4.212650e-04	6	2.321480e-01	1.871040e-02	4	false	GAMG	8.133770e-02	6.963040e-04	4	true
30            	smoothSolver	5.443570e-03	4.175800e-04	6	2.267720e-01	1.958720e-02	4	false	GAMG	7.711310e-02	7.406370e-04	4	true
31            	smoothSolver	5.391250e-03	4.139100e-04	6	2.415560e-01	1.793920e-02	4	false	GAMG	7.871320e-02	6.869050e-04	4	true
32            	smoothSolver	5.337650e-03	4.106080e-04	6	2.249090e-01	2.101930e-02	3	false	GAMG	7.916790e-02	6.404990e-04	4	true
33            	smoothSolver	5.287540e-03	4.069920e-04	6	2.141560e-01	1.918580e-02	3	false	GAMG	8.141530e-02	4.695790e-04	4	true
34            	smoothSolver	5.237000e-03	4.037980e-04	6	2.167300e-01	2.141270e-02	3	false	GAMG	8.259430e-02	7.873890e-04	4	true
35            	smoothSolver	5.186660e-03	4.005440e-04	6	2.262630e-01	2.191140e-02	3	false	GAMG	8.339660e-02	8.020900e-04	3	true
36            	smoothSolver	5.138980e-03	3.975380e-04	6	2.249020e-01	1.480320e-02	4	false	GAMG	8.651670e-02	5.708010e-04	5	true
37            	smoothSolver	5.088830e-03	3.943120e-04	6	2.198660e-01	1.791530e-02	3	false	GAMG	7.942200e-02	4.509580e-04	4	true
38            	smoothSolver	5.040830e-03	3.910760e-04	6	2.161240e-01	1.624360e-02	3	false	GAMG	8.207860e-02	5.417430e-04	5	true
39            	smoothSolver	4.992550e-03	3.879790e-04	6	2.269360e-01	1.635870e-02	3	false	GAMG	8.975590e-02	8.353850e-04	4	true
40            	smoothSolver	4.941430e-03	3.846880e-04	6	2.320500e-01	1.872920e-02	3	false	GAMG	9.261870e-02	5.053530e-04	5	true
41            	smoothSolver	4.894730e-03	3.815240e-04	6	2.268810e-01	1.732500e-02	3	false	GAMG	9.687330e-02	8.940060e-04	5	true
42            	smoothSolver	4.850080e-03	3.786650e-04	6	2.218290e-01	1.578320e-02	3	false	GAMG	9.176860e-02	6.218170e-04	4	true
43            	smoothSolver	4.805990e-03	3.759570e-04	6	2.265750e-01	1.190480e-02	3	false	GAMG	9.760980e-02	7.484040e-04	5	true
44            	smoothSolver	4.759770e-03	3.730270e-04	6	2.094300e-01	1.392610e-02	3	false	GAMG	1.023710e-01	7.915900e-04	4	true
45            	smoothSolver	4.713950e-03	3.700610e-04	6	2.175770e-01	1.524890e-02	3	false	GAMG	1.095440e-01	8.397460e-04	4	true
46            	smoothSolver	4.668800e-03	3.671950e-04	6	1.893420e-01	1.669850e-02	3	false	GAMG	1.153870e-01	7.828490e-04	4	true
47            	smoothSolver	4.626170e-03	3.644270e-04	6	1.963420e-01	1.459840e-02	3	false	GAMG	1.189360e-01	9.258830e-04	4	true
48            	smoothSolver	4.584490e-03	3.618180e-04	6	1.731040e-01	1.418950e-02	3	false	GAMG	1.018950e-01	5.786900e-04	4	true
49            	smoothSolver	4.545020e-03	3.592090e-04	6	1.935260e-01	1.259460e-02	3	false	GAMG	1.088500e-01	1.020050e-03	3	true
50            	smoothSolver	4.503590e-03	3.565300e-04	6	1.855630e-01	1.252100e-02	3	false	GAMG	1.137250e-01	1.108650e-03	4	true
51            	smoothSolver	4.466480e-03	3.540990e-04	6	1.821000e-01	1.248220e-02	3	false	GAMG	1.097120e-01	9.697660e-04	4	true
52            	smoothSolver	4.429230e-03	3.517910e-04	6	1.816710e-01	1.325720e-02	3	false	GAMG	1.312910e-01	9.890750e-04	4	true
53            	smoothSolver	4.392070e-03	3.493690e-04	6	1.791250e-01	1.297230e-02	3	false	GAMG	1.179400e-01	9.187980e-04	5	true
54            	smoothSolver	4.355130e-03	3.470270e-04	6	1.902640e-01	1.476880e-02	3	false	GAMG	1.201700e-01	7.089000e-04	5	true
55            	smoothSolver	4.320050e-03	3.446860e-04	6	1.930740e-01	1.297440e-02	3	false	GAMG	1.282360e-01	1.063510e-03	4	true
56            	smoothSolver	4.285000e-03	3.424660e-04	6	1.829580e-01	1.492670e-02	3	false	GAMG	1.347210e-01	9.159110e-04	4	true
57            	smoothSolver	4.250790e-03	3.401790e-04	6	1.882160e-01	1.622330e-02	3	false	GAMG	1.281370e-01	1.155720e-03	4	true
58            	smoothSolver	4.218070e-03	3.381040e-04	6	1.857330e-01	1.501950e-02	3	false	GAMG	1.292610e-01	7.959810e-04	4	true
59            	smoothSolver	4.186760e-03	3.360790e-04	6	1.863050e-01	1.425060e-02	3	false	GAMG	1.431290e-01	6.465740e-04	4	true
60            	smoothSolver	4.155260e-03	3.340660e-04	6	1.869180e-01	1.345840e-02	3	false	GAMG	1.639210e-01	7.422260e-04	4	true
61            	smoothSolver	4.125130e-03	3.320570e-04	6	1.915090e-01	1.511340e-02	3	false	GAMG	1.387310e-01	1.174990e-03	4	true
62            	smoothSolver	4.095050e-03	3.300580e-04	6	1.738680e-01	1.452760e-02	3	false	GAMG	1.334980e-01	7.827840e-04	5	true
63            	smoothSolver	4.066420e-03	3.281770e-04	6	2.030750e-01	1.538770e-02	3	false	GAMG	1.415440e-01	1.193820e-03	4	true
64            	smoothSolver	4.038470e-03	3.263400e-04	6	1.922250e-01	1.341280e-02	3	false	GAMG	1.461030e-01	1.324070e-03	4	true
65            	smoothSolver	4.011500e-03	3.245710e-04	6	1.778860e-01	1.214090e-02	3	false	GAMG	1.445070e-01	1.096630e-03	5	true
66            	smoothSolver	3.985290e-03	3.228030e-04	6	1.701240e-01	1.336980e-02	3	false	GAMG	1.345540e-01	9.248510e-04	4	true
67            	smoothSolver	3.959420e-03	3.210910e-04	6	1.950670e-01	1.510390e-02	3	false	GAMG	1.519040e-01	1.091120e-03	4	true
68            	smoothSolver	3.935120e-03	3.193850e-04	6	2.002330e-01	1.860870e-02	3	false	GAMG	1.398000e-01	8.665560e-04	5	true
69            	smoothSolver	3.909870e-03	3.176650e-04	6	1.976780e-01	1.801380e-02	3	false	GAMG	1.372120e-01	1.021510e-03	4	true
70            	smoothSolver	3.886360e-03	3.160320e-04	6	2.196800e-01	1.857920e-02	3	false	GAMG	1.614690e-01	1.397980e-03	4	true
71            	smoothSolver	3.863440e-03	3.144510e-04	6	2.244350e-01	1.818510e-02	3	false	GAMG	1.548980e-01	1.252790e-03	5	true
72            	smoothSolver	3.841330e-03	3.129020e-04	6	2.163490e-01	2.039490e-02	3	false	GAMG	1.583070e-01	1.394610e-03	4	true
73            	smoothSolver	3.818030e-03	3.112370e-04	6	2.082010e-01	1.706450e-02	3	false	GAMG	1.438360e-01	9.775700e-04	4	true
74            	smoothSolver	3.796890e-03	3.097640e-04	6	2.133680e-01	1.948760e-02	3	false	GAMG	1.418900e-01	1.268100e-03	5	true
75            	smoothSolver	3.776490e-03	3.082950e-04	6	2.278410e-01	1.773910e-02	3	false	GAMG	1.729060e-01	1.191950e-03	4	true
76            	smoothSolver	3.755420e-03	3.068400e-04	6	2.056490e-01	1.624360e-02	3	false	GAMG	1.542710e-01	1.386740e-03	4	true
77            	smoothSolver	3.735280e-03	3.053450e-04	6	2.104620e-01	1.471170e-02	3	false	GAMG	1.686140e-01	1.420090e-03	5	true
78            	smoothSolver	3.714440e-03	3.038090e-04	6	2.364580e-01	1.885760e-02	3	false	GAMG	1.661090e-01	1.034120e-03	4	true
79            	smoothSolver	3.694650e-03	3.023400e-04	6	2.465710e-01	1.653500e-02	3	false	GAMG	1.661380e-01	1.371650e-03	4	true
80            	smoothSolver	3.675050e-03	3.008940e-04	6	2.374530e-01	1.689740e-02	3	false	GAMG	1.422630e-01	1.169580e-03	4	true
81            	smoothSolver	3.656380e-03	2.995550e-04	6	2.390700e-01	2.034360e-02	3	false	GAMG	1.494160e-01	1.109160e-03	4	true
82            	smoothSolver	3.636860e-03	2.980350e-04	6	2.361900e-01	1.976780e-02	3	false	GAMG	1.452720e-01	1.270070e-03	4	true
83            	smoothSolver	3.617380e-03	2.965660e-04	6	2.654010e-01	1.687140e-02	3	false	GAMG	1.514150e-01	1.287520e-03	4	true
84            	smoothSolver	3.599980e-03	2.952290e-04	6	2.464040e-01	1.865360e-02	3	false	GAMG	1.573350e-01	1.096760e-03	4	true
85            	smoothSolver	3.582160e-03	2.938800e-04	6	2.481540e-01	1.791610e-02	3	false	GAMG	1.747380e-01	1.330180e-03	4	true
86            	smoothSolver	3.562990e-03	2.923800e-04	6	2.501750e-01	1.876140e-02	3	false	GAMG	1.700350e-01	1.231070e-03	4	true
87            	smoothSolver	3.545700e-03	2.910170e-04	6	2.428090e-01	2.104650e-02	3	false	GAMG	1.680640e-01	1.290430e-03	4	true
88            	smoothSolver	3.528120e-03	2.896380e-04	6	2.436560e-01	1.849890e-02	3	false	GAMG	1.566010e-01	1.262780e-03	4	true
89            	smoothSolver	3.510590e-03	2.882630e-04	6	2.335740e-01	1.823470e-02	3	false	GAMG	1.458220e-01	1.243670e-03	4	true
90            	smoothSolver	3.493210e-03	2.869360e-04	6	2.535450e-01	2.110610e-02	3	false	GAMG	1.472920e-01	1.024540e-03	4	true
91            	smoothSolver	3.474080e-03	2.854100e-04	6	2.512030e-01	2.161410e-02	3	false	GAMG	1.483370e-01	1.196020e-03	4	true
92            	smoothSolver	3.457830e-03	2.840410e-04	6	2.680390e-01	2.606090e-02	3	false	GAMG	1.586140e-01	1.407650e-03	5	true
93            	smoothSolver	3.440800e-03	2.827310e-04	6	2.414930e-01	1.886580e-02	3	false	GAMG	1.434640e-01	9.531310e-04	4	true
94            	smoothSolver	3.422580e-03	2.813410e-04	6	2.577450e-01	2.146570e-02	3	false	GAMG	1.760790e-01	1.328960e-03	4	true
95            	smoothSolver	3.406220e-03	2.799550e-04	6	2.729370e-01	2.242490e-02	3	false	GAMG	1.728920e-01	1.428650e-03	4	true
96            	smoothSolver	3.387560e-03	2.784210e-04	6	2.715680e-01	2.479210e-02	3	false	GAMG	1.865330e-01	1.264160e-03	4	true
97            	smoothSolver	3.371470e-03	2.770780e-04	6	2.706490e-01	2.273930e-02	3	false	GAMG	1.696850e-01	1.606240e-03	4	true
98            	smoothSolver	3.353810e-03	2.756160e-04	6	2.778900e-01	2.290240e-02	3	false	GAMG	1.716760e-01	1.028520e-03	5	true
99            	smoothSolver	3.337970e-03	2.742710e-04	6	2.779660e-01	2.093680e-02	3	false	GAMG	1.751350e-01	1.133610e-03	5	true
100           	smoothSolver	3.319670e-03	2.727340e-04	6	2.836030e-01	1.877390e-02	3	false	GAMG	1.627500e-01	1.332060e-03	4	true
101           	smoothSolver	3.300670e-03	2.711870e-04	6	2.627060e-01	1.566900e-02	3	false	GAMG	1.465070e-01	1.023940e-03	4	true
102           	smoothSolver	3.283620e-03	2.697130e-04	6	2.655210e-01	1.835270e-02	3	false	GAMG	1.499630e-01	9.809280e-04	4	true
103           	smoothSolver	3.266760e-03	2.683440e-04	6	2.766950e-01	1.967320e-02	3	false	GAMG	1.705020e-01	1.237790e-03	4	true
104           	smoothSolver	3.247460e-03	2.667470e-04	6	3.250650e-01	2.375120e-02	3	false	GAMG	1.842240e-01	1.243090e-03	5	true
105           	smoothSolver	3.230510e-03	2.652290e-04	6	3.210760e-01	2.236970e-02	3	false	GAMG	1.691030e-01	1.507280e-03	4	true
106           	smoothSolver	3.212430e-03	2.637340e-04	6	2.912940e-01	1.737430e-02	3	false	GAMG	1.638740e-01	1.148120e-03	4	true
107           	smoothSolver	3.195420e-03	2.622410e-04	6	3.006830e-01	2.378040e-02	3	false	GAMG	1.987500e-01	1.742580e-03	4	true
108           	smoothSolver	3.177300e-03	2.607020e-04	6	3.025620e-01	2.022830e-02	3	false	GAMG	1.825230e-01	1.363750e-03	4	true
109           	smoothSolver	3.158660e-03	2.591210e-04	6	3.055610e-01	2.142100e-02	3	false	GAMG	1.870000e-01	1.718060e-03	4	true
110           	smoothSolver	3.142000e-03	2.576540e-04	6	3.036290e-01	2.012010e-02	3	false	GAMG	1.705750e-01	1.634730e-03	4	true
111           	smoothSolver	3.123920e-03	2.560350e-04	6	3.216330e-01	2.079750e-02	3	false	GAMG	1.886990e-01	1.871080e-03	4	true
112           	smoothSolver	3.105540e-03	2.545080e-04	6	3.137310e-01	2.051090e-02	3	false	GAMG	1.839540e-01	1.417910e-03	4	true
113           	smoothSolver	3.086840e-03	2.528970e-04	6	3.276200e-01	2.012000e-02	3	false	GAMG	1.800720e-01	1.626580e-03	4	true
114           	smoothSolver	3.067140e-03	2.512570e-04	6	3.424660e-01	2.893710e-02	3	false	GAMG	2.238820e-01	1.267870e-03	5	true
115           	smoothSolver	3.049830e-03	2.496840e-04	6	3.299940e-01	2.277320e-02	3	false	GAMG	1.985460e-01	1.900740e-03	4	true
116           	smoothSolver	3.032880e-03	2.481550e-04	6	3.107740e-01	2.142980e-02	3	false	GAMG	1.798870e-01	1.390420e-03	5	true
117           	smoothSolver	3.014450e-03	2.465850e-04	6	3.462200e-01	2.698000e-02	3	false	GAMG	1.866040e-01	1.369420e-03	4	true
118           	smoothSolver	2.994390e-03	2.449110e-04	6	3.800160e-01	3.346710e-02	3	false	GAMG	2.027600e-01	1.493110e-03	5	true
119           	smoothSolver	2.975760e-03	2.433180e-04	6	3.672660e-01	3.559600e-02	3	false	GAMG	2.156570e-01	1.229410e-03	5	true
120           	smoothSolver	2.957420e-03	2.416440e-04	6	3.739230e-01	3.604840e-02	3	false	GAMG	1.823070e-01	1.098770e-03	5	true
121           	smoothSolver	2.939200e-03	2.400600e-04	6	3.923080e-01	3.631330e-02	3	false	GAMG	2.023440e-01	1.955080e-03	4	true
122           	smoothSolver	2.920960e-03	2.385560e-04	6	3.820410e-01	3.636720e-02	3	false	GAMG	2.096360e-01	2.010780e-03	5	true
123           	smoothSolver	2.902230e-03	2.368930e-04	6	3.755000e-01	3.248330e-02	3	false	GAMG	1.880150e-01	1.863330e-03	4	true
124           	smoothSolver	2.884710e-03	2.352650e-04	6	3.605500e-01	2.860830e-02	3	false	GAMG	1.865210e-01	1.731820e-03	4	true
125           	smoothSolver	2.866030e-03	2.336120e-04	6	3.499080e-01	2.634430e-02	3	false	GAMG	1.968100e-01	1.527660e-03	4	true
126           	smoothSolver	2.847940e-03	2.320560e-04	6	3.361700e-01	2.380360e-02	3	false	GAMG	1.991230e-01	1.207420e-03	5	true
127           	smoothSolver	2.828640e-03	2.303840e-04	6	3.449910e-01	2.426180e-02	3	false	GAMG	2.109960e-01	1.960290e-03	5	true
128           	smoothSolver	2.809180e-03	2.287470e-04	6	3.162260e-01	2.199930e-02	3	false	GAMG	2.301500e-01	1.520950e-03	4	true
129           	smoothSolver	2.790670e-03	2.270510e-04	6	3.388820e-01	2.322020e-02	3	false	GAMG	2.282210e-01	1.433440e-03	5	true
130           	smoothSolver	2.769680e-03	2.252780e-04	6	3.527230e-01	2.104390e-02	3	false	GAMG	1.989290e-01	1.879240e-03	4	true
131           	smoothSolver	2.751840e-03	2.236550e-04	6	3.739320e-01	2.866030e-02	3	false	GAMG	2.408390e-01	1.312530e-03	5	true
132           	smoothSolver	2.732540e-03	2.219790e-04	6	3.657600e-01	2.723300e-02	3	false	GAMG	2.174880e-01	1.974650e-03	4	true
133           	smoothSolver	2.713540e-03	2.202660e-04	6	4.012540e-01	3.626030e-02	3	false	GAMG	2.363890e-01	2.168800e-03	4	true
134           	smoothSolver	2.695290e-03	2.185820e-04	6	4.313080e-01	3.234890e-02	3	false	GAMG	2.311160e-01	2.295680e-03	4	true
135           	smoothSolver	2.676440e-03	2.169990e-04	6	4.131740e-01	2.757440e-02	3	false	GAMG	2.229170e-01	2.146580e-03	5	true
136           	smoothSolver	2.657190e-03	2.152830e-04	6	3.914100e-01	2.803790e-02	3	false	GAMG	2.340280e-01	1.961590e-03	5	true
137           	smoothSolver	2.636090e-03	2.135140e-04	6	3.836420e-01	3.033230e-02	3	false	GAMG	2.221450e-01	1.320690e-03	5	true
138           	smoothSolver	2.614920e-03	2.117020e-04	6	3.610280e-01	2.470570e-02	3	false	GAMG	2.388920e-01	1.864970e-03	4	true
139           	smoothSolver	2.596130e-03	2.100120e-04	6	3.930090e-01	2.716670e-02	3	false	GAMG	2.475630e-01	1.953200e-03	4	true
140           	smoothSolver	2.578580e-03	2.084920e-04	6	3.913800e-01	2.602060e-02	3	false	GAMG	2.253180e-01	1.946030e-03	4	true
141           	smoothSolver	2.559980e-03	2.067890e-04	6	3.845250e-01	3.094500e-02	3	false	GAMG	2.486280e-01	1.689460e-03	5	true
142           	smoothSolver	2.539560e-03	2.050890e-04	6	3.606050e-01	2.877600e-02	3	false	GAMG	2.382770e-01	2.162150e-03	5	true
143           	smoothSolver	2.518850e-03	2.032690e-04	6	3.373670e-01	2.882950e-02	3	false	GAMG	2.364350e-01	1.951920e-03	5	true
144           	smoothSolver	2.497820e-03	2.015320e-04	6	3.334570e-01	2.850540e-02	3	false	GAMG	2.351360e-01	1.754100e-03	5	true
145           	smoothSolver	2.478490e-03	1.997730e-04	6	3.367410e-01	3.122040e-02	3	false	GAMG	2.083320e-01	1.117660e-03	5	true
146           	smoothSolver	2.457960e-03	1.980310e-04	6	3.478930e-01	3.089790e-02	3	false	GAMG	2.093680e-01	1.733080e-03	4	true
147           	smoothSolver	2.436820e-03	1.962410e-04	6	3.387220e-01	3.006700e-02	3	false	GAMG	1.930320e-01	1.304230e-03	5	true
148           	smoothSolver	2.419650e-03	1.946770e-04	6	3.475020e-01	3.210080e-02	3	false	GAMG	2.403200e-01	1.764020e-03	4	true
149           	smoothSolver	2.399770e-03	1.930120e-04	6	3.483980e-01	2.812230e-02	3	false	GAMG	2.082560e-01	1.278290e-03	5	true
150           	smoothSolver	2.381590e-03	1.913570e-04	6	3.427320e-01	2.720720e-02	3	false	GAMG	2.068990e-01	1.250980e-03	5	true
151           	smoothSolver	2.360340e-03	1.896650e-04	6	3.973190e-01	3.359190e-02	3	false	GAMG	2.285120e-01	1.402870e-03	5	true
152           	smoothSolver	2.340770e-03	1.878690e-04	6	3.594260e-01	2.523860e-02	3	false	GAMG	2.073910e-01	9.950920e-04	5	true
153           	smoothSolver	2.322590e-03	1.861360e-04	6	3.601660e-01	2.450910e-02	3	false	GAMG	2.167950e-01	1.235450e-03	5	true
154           	smoothSolver	2.300380e-03	1.843150e-04	6	3.768330e-01	2.302620e-02	3	false	GAMG	2.239920e-01	1.399490e-03	5	true
155           	smoothSolver	2.282510e-03	1.826780e-04	6	3.889690e-01	2.318710e-02	3	false	GAMG	1.869990e-01	1.012930e-03	5	true
156           	smoothSolver	2.261660e-03	1.809410e-04	6	3.830060e-01	2.525430e-02	3	false	GAMG	1.838230e-01	1.022950e-03	5	true
157           	smoothSolver	2.243160e-03	1.793200e-04	6	3.580730e-01	2.260920e-02	3	false	GAMG	2.020890e-01	1.930030e-03	4	true
158           	smoothSolver	2.224850e-03	1.777020e-04	6	3.701120e-01	2.563040e-02	3	false	GAMG	2.271080e-01	2.038640e-03	5	true
159           	smoothSolver	2.202290e-03	1.758420e-04	6	3.929970e-01	2.734310e-02	3	false	GAMG	2.277070e-01	1.522220e-03	5	true
160           	smoothSolver	2.183890e-03	1.741640e-04	6	3.433510e-01	2.083480e-02	3	false	GAMG	2.269400e-01	1.692460e-03	4	true
161           	smoothSolver	2.165740e-03	1.725880e-04	6	3.938400e-01	2.705210e-02	3	false	GAMG	2.189090e-01	1.568680e-03	5	true
162           	smoothSolver	2.144150e-03	1.706500e-04	6	3.635150e-01	2.739660e-02	3	false	GAMG	2.136480e-01	1.388510e-03	5	true
163           	smoothSolver	2.123310e-03	1.688620e-04	6	3.954640e-01	3.067950e-02	3	false	GAMG	2.425950e-01	1.512360e-03	5	true
164           	smoothSolver	2.103800e-03	1.671450e-04	6	4.067110e-01	2.851580e-02	3	false	GAMG	2.626820e-01	1.730560e-03	5	true
165           	smoothSolver	2.083560e-03	1.654660e-04	6	4.074680e-01	2.558050e-02	3	false	GAMG	2.594260e-01	2.465340e-03	5	true
166           	smoothSolver	2.063720e-03	1.637990e-04	6	3.802080e-01	2.758590e-02	3	false	GAMG	2.245490e-01	2.052800e-03	5	true
167           	smoothSolver	2.047580e-03	1.621510e-04	6	3.727590e-01	2.772980e-02	3	false	GAMG	2.172470e-01	2.034670e-03	5	true
168           	smoothSolver	2.028350e-03	1.606350e-04	6	3.538570e-01	2.473530e-02	3	false	GAMG	2.021220e-01	1.058770e-03	5	true
169           	smoothSolver	2.008130e-03	1.588880e-04	6	3.638570e-01	2.865700e-02	3	false	GAMG	2.128970e-01	1.458130e-03	5	true
170           	smoothSolver	1.992030e-03	1.573910e-04	6	3.720300e-01	2.637070e-02	3	false	GAMG	2.232090e-01	1.906540e-03	5	true
171           	smoothSolver	1.971740e-03	1.557430e-04	6	3.738720e-01	2.919200e-02	3	false	GAMG	2.140470e-01	1.872500e-03	5	true
172           	smoothSolver	1.952010e-03	1.541790e-04	6	3.555430e-01	2.934140e-02	3	false	GAMG	2.249090e-01	1.769870e-03	5	true
173           	smoothSolver	1.932740e-03	1.524790e-04	6	3.656420e-01	2.687660e-02	3	false	GAMG	2.588860e-01	1.476070e-03	5	true
174           	smoothSolver	1.916200e-03	1.510650e-04	6	3.657270e-01	2.977450e-02	3	false	GAMG	2.309370e-01	1.425410e-03	5	true
175           	smoothSolver	1.894610e-03	1.492820e-04	6	3.929250e-01	3.295750e-02	3	false	GAMG	2.329220e-01	2.043110e-03	5	true
176           	smoothSolver	1.877250e-03	1.477160e-04	6	3.851700e-01	3.330440e-02	3	false	GAMG	2.404320e-01	1.547860e-03	5	true
177           	smoothSolver	1.856290e-03	1.460660e-04	6	3.538710e-01	2.781420e-02	3	false	GAMG	2.311360e-01	1.979260e-03	4	true
178           	smoothSolver	1.841610e-03	1.447180e-04	6	3.995610e-01	3.535670e-02	3	false	GAMG	2.486770e-01	1.522910e-03	5	true
179           	smoothSolver	1.820610e-03	1.430110e-04	6	4.011270e-01	3.362480e-02	3	false	GAMG	2.288580e-01	1.507240e-03	5	true
180           	smoothSolver	1.803300e-03	1.413990e-04	6	4.076140e-01	3.368490e-02	3	false	GAMG	2.424440e-01	1.880950e-03	4	true
181           	smoothSolver	1.782850e-03	1.398120e-04	6	3.872250e-01	3.003130e-02	3	false	GAMG	2.039390e-01	1.726820e-03	5	true
182           	smoothSolver	1.767160e-03	1.383110e-04	6	4.143170e-01	3.251100e-02	3	false	GAMG	2.194860e-01	2.113280e-03	4	true
183           	smoothSolver	1.750330e-03	1.367720e-04	6	4.567710e-01	3.759280e-02	3	false	GAMG	2.235990e-01	1.331500e-03	5	true
184           	smoothSolver	1.731500e-03	1.352850e-04	6	4.268620e-01	3.380270e-02	3	false	GAMG	2.107760e-01	1.258250e-03	5	true
185           	smoothSolver	1.714920e-03	1.338120e-04	6	4.252530e-01	3.167730e-02	3	false	GAMG	1.976710e-01	9.224430e-04	5	true
186           	smoothSolver	1.694230e-03	1.320700e-04	6	4.147660e-01	2.990790e-02	3	false	GAMG	2.081620e-01	1.885520e-03	4	true
187           	smoothSolver	1.678080e-03	1.306370e-04	6	4.097390e-01	3.119700e-02	3	false	GAMG	2.029660e-01	1.782450e-03	5	true
188           	smoothSolver	1.659680e-03	1.290720e-04	6	4.462570e-01	3.287060e-02	3	false	GAMG	2.234710e-01	8.112870e-04	6	true
189           	smoothSolver	1.640890e-03	1.275150e-04	6	4.495600e-01	3.475180e-02	3	false	GAMG	2.139840e-01	1.453020e-03	5	true
190           	smoothSolver	1.617820e-03	1.257410e-04	6	4.471070e-01	4.159340e-02	3	false	GAMG	1.873530e-01	1.567550e-03	5	true
191           	smoothSolver	1.603120e-03	1.243090e-04	6	4.226900e-01	3.634150e-02	3	false	GAMG	1.980960e-01	1.487410e-03	5	true
192           	smoothSolver	1.581840e-03	1.226830e-04	6	4.284160e-01	3.677280e-02	3	false	GAMG	2.057720e-01	1.749170e-03	5	true
193           	smoothSolver	1.570240e-03	1.214610e-04	6	4.196410e-01	3.104370e-02	3	false	GAMG	2.116560e-01	1.555210e-03	5	true
194           	smoothSolver	1.551770e-03	1.199550e-04	6	4.174340e-01	2.814650e-02	3	false	GAMG	2.344610e-01	2.240270e-03	4	true
195           	smoothSolver	1.534030e-03	1.184830e-04	6	3.991730e-01	2.266500e-02	3	false	GAMG	2.208150e-01	1.351180e-03	5	true
196           	smoothSolver	1.518590e-03	1.171130e-04	6	4.662900e-01	2.665650e-02	3	false	GAMG	2.419160e-01	2.112500e-03	4	true
197           	smoothSolver	1.501130e-03	1.156460e-04	6	4.413710e-01	3.246010e-02	3	false	GAMG	2.289080e-01	1.614880e-03	5	true
198           	smoothSolver	1.479660e-03	1.140160e-04	6	4.184010e-01	2.897420e-02	3	false	GAMG	2.336520e-01	2.254380e-03	4	true
199           	smoothSolver	1.461170e-03	1.123610e-04	6	4.240020e-01	2.991730e-02	3	false	GAMG	2.081370e-01	1.227240e-03	5	true
200           	smoothSolver	1.448240e-03	1.109730e-04	6	4.860500e-01	3.522380e-02	3	false	GAMG	2.161210e-01	2.128400e-03	4	true
201           	smoothSolver	1.427260e-03	1.094050e-04	6	5.048080e-01	3.239240e-02	3	false	GAMG	2.406970e-01	2.325310e-03	5	true
202           	smoothSolver	1.414510e-03	1.081300e-04	6	5.040750e-01	3.309120e-02	3	false	GAMG	2.320840e-01	2.195810e-03	4	true
203           	smoothSolver	1.396280e-03	1.065850e-04	6	5.010640e-01	3.256120e-02	3	false	GAMG	2.149150e-01	1.242970e-03	5	true
204           	smoothSolver	1.379190e-03	1.051460e-04	6	4.863650e-01	2.923600e-02	3	false	GAMG	2.236610e-01	2.002560e-03	5	true
205           	smoothSolver	1.362660e-03	1.037390e-04	6	4.896260e-01	3.562660e-02	3	false	GAMG	2.335210e-01	1.535570e-03	5	true
206           	smoothSolver	1.344030e-03	1.021640e-04	6	4.530260e-01	3.846280e-02	3	false	GAMG	2.108370e-01	9.553340e-04	5	true
207           	smoothSolver	1.328750e-03	1.008090e-04	6	4.860550e-01	3.390020e-02	3	false	GAMG	2.180490e-01	1.327210e-03	5	true
208           	smoothSolver	1.310270e-03	9.921350e-05	6	5.007920e-01	3.473090e-02	3	false	GAMG	2.240490e-01	2.224990e-03	4	true
209           	smoothSolver	1.295110e-03	9.787520e-05	6	4.806970e-01	2.923100e-02	3	false	GAMG	2.135330e-01	2.052080e-03	4	true
210           	smoothSolver	1.277070e-03	9.639380e-05	6	4.555800e-01	3.323840e-02	3	false	GAMG	2.133100e-01	1.214940e-03	5	true
211           	smoothSolver	1.261260e-03	9.501440e-05	6	5.007510e-01	3.583690e-02	3	false	GAMG	2.270080e-01	1.387970e-03	5	true
212           	smoothSolver	1.242450e-03	9.349680e-05	6	4.911390e-01	4.028260e-02	3	false	GAMG	2.429480e-01	1.836730e-03	5	true
213           	smoothSolver	1.224270e-03	9.202590e-05	6	4.479410e-01	3.187930e-02	3	false	GAMG	2.177580e-01	1.495310e-03	5	true
214           	smoothSolver	1.207810e-03	9.065610e-05	6	4.747360e-01	3.771600e-02	3	false	GAMG	2.275710e-01	1.570080e-03	5	true
215           	smoothSolver	1.195880e-03	8.933800e-05	6	5.116660e-01	3.327400e-02	3	false	GAMG	2.472320e-01	1.893770e-03	5	true
216           	smoothSolver	1.181510e-03	8.807680e-05	6	4.993810e-01	3.216490e-02	3	false	GAMG	2.404010e-01	1.321140e-03	5	true
217           	smoothSolver	1.164740e-03	8.664060e-05	6	4.641890e-01	3.334360e-02	3	false	GAMG	2.252320e-01	1.437960e-03	5	true
218           	smoothSolver	1.147390e-03	8.519550e-05	6	4.580800e-01	3.530910e-02	3	false	GAMG	2.395850e-01	1.538830e-03	5	true
219           	smoothSolver	1.129930e-03	8.383690e-05	6	4.687170e-01	3.676190e-02	3	false	GAMG	2.317430e-01	1.277320e-03	5	true
220           	smoothSolver	1.116660e-03	8.262740e-05	6	4.543230e-01	3.599000e-02	3	false	GAMG	2.458670e-01	1.297780e-03	5	true
221           	smoothSolver	1.101210e-03	8.139000e-05	6	4.634050e-01	3.715520e-02	3	false	GAMG	2.365960e-01	1.351040e-03	5	true
222           	smoothSolver	1.085910e-03	8.003410e-05	6	4.729740e-01	3.599660e-02	3	false	GAMG	2.527530e-01	1.609300e-03	5	true
223           	smoothSolver	1.069800e-03	7.878470e-05	6	4.655290e-01	3.128060e-02	3	false	GAMG	2.188580e-01	1.136320e-03	5	true
224           	smoothSolver	1.056910e-03	7.744360e-05	6	4.971040e-01	3.371100e-02	3	false	GAMG	2.286320e-01	2.155300e-03	5	true
225           	smoothSolver	1.044500e-03	7.646680e-05	6	4.898680e-01	3.444710e-02	3	false	GAMG	2.337300e-01	1.649750e-03	5	true
226           	smoothSolver	1.026780e-03	7.517450e-05	6	4.482510e-01	3.378130e-02	3	false	GAMG	2.151160e-01	1.732830e-03	5	true
227           	smoothSolver	1.011240e-03	7.382980e-05	6	4.610520e-01	3.192140e-02	3	false	GAMG	2.351040e-01	1.500800e-03	5	true
228           	smoothSolver	9.954790e-04	7.260930e-05	6	4.860370e-01	3.230430e-02	3	false	GAMG	2.322430e-01	1.277250e-03	5	true
229           	smoothSolver	9.812260e-04	7.139780e-05	6	4.661580e-01	3.104450e-02	3	false	GAMG	2.348880e-01	1.423100e-03	5	true
230           	smoothSolver	9.645370e-04	7.010330e-05	6	4.653760e-01	3.391350e-02	3	false	GAMG	2.172100e-01	1.400970e-03	5	true
231           	smoothSolver	9.507930e-04	6.894790e-05	6	4.236680e-01	3.273310e-02	3	false	GAMG	2.271290e-01	1.371880e-03	5	true
232           	smoothSolver	9.367140e-04	6.776260e-05	6	4.303650e-01	2.461510e-02	3	false	GAMG	2.396600e-01	1.490560e-03	5	true