# Solver information
# Time        	U_solver      	Ux_initial    	Ux_final      	Ux_iters      	Uy_initial    	Uy_final      	Uy_iters      	U_converged   	p_solver      	p_initial     	p_final       	p_iters       	p_converged   
1             	smoothSolver	0.000000e+00	0.000000e+00	0	0.000000e+00	0.000000e+00	0	false	GAMG	9.999940e-01	4.699490e-03	3	true
2             	smoothSolver	1.208200e-01	8.849210e-03	4	1.000000e+00	5.942840e-02	2	false	GAMG	1.000000e+00	9.374530e-03	3	true
3             	smoothSolver	4.200990e-02	2.680650e-03	4	5.841990e-01	3.632080e-02	2	false	GAMG	1.348750e-01	8.851380e-04	5	true
4             	smoothSolver	2.286520e-02	2.226460e-03	4	4.196350e-01	4.078910e-02	2	false	GAMG	1.058820e-01	7.887020e-04	4	true
5             	smoothSolver	1.617520e-02	1.195200e-03	5	3.955170e-01	2.560230e-02	3	false	GAMG	1.124590e-01	6.991100e-04	5	true
6             	smoothSolver	1.251160e-02	1.058390e-03	5	4.127350e-01	3.772780e-02	3	false	GAMG	1.140990e-01	8.959850e-04	4	true
7             	smoothSolver	1.051880e-02	9.732670e-04	5	4.085020e-01	2.580860e-02	4	false	GAMG	1.135280e-01	9.171300e-04	4	true
8             	smoothSolver	9.142710e-03	9.101280e-04	5	3.720130e-01	2.616350e-02	4	false	GAMG	1.030100e-01	5.903120e-04	4	true
9             	smoothSolver	8.153500e-03	5.639810e-04	6	3.376270e-01	2.475820e-02	4	false	GAMG	9.351020e-02	6.444170e-04	4	true
10            	smoothSolver	7.406580e-03	5.389490e-04	6	3.325330e-01	2.417770e-02	4	false	GAMG	8.683720e-02	8.589610e-04	4	true
11            	smoothSolver	6.890550e-03	5.179350e-04	6	3.331750e-01	2.259560e-02	4	false	GAMG	8.433720e-02	3.480090e-04	5	true
12            	smoothSolver	6.605040e-03	5.010840e-04	6	3.162730e-01	2.093780e-02	4	false	GAMG	8.203070e-02	6.912440e-04	4	true
13            	smoothSolver	6.443650e-03	4.880230e-04	6	2.927280e-01	1.933190e-02	4	false	GAMG	7.776780e-02	7.021810e-04	4	true
14            	smoothSolver	6.291500e-03	4.758500e-04	6	2.713500e-01	1.847540e-02	4	false	GAMG	7.312370e-02	5.651480e-04	4	true
15            	smoothSolver	6.165870e-03	4.648980e-04	6	2.498780e-01	1.791620e-02	4	false	GAMG	6.967290e-02	6.492700e-04	3	true
16            	smoothSolver	6.066540e-03	4.568770e-04	6	2.338290e-01	1.802520e-02	4	false	GAMG	6.987570e-02	4.799050e-04	4	true
17            	smoothSolver	5.974630e-03	4.501090e-04	6	2.172370e-01	1.654430e-02	4	false	GAMG	6.770160e-02	6.612670e-04	3	true
18            	smoothSolver	5.870630e-03	4.418720e-04	6	1.976630e-01	1.508280e-02	4	false	GAMG	6.621460e-02	6.403960e-04	3	true
19            	smoothSolver	5.790220e-03	4.358570e-04	6	1.813680e-01	1.388380e-02	4	false	GAMG	6.478290e-02	3.580590e-04	4	true
20            	smoothSolver	5.703550e-03	4.296060e-04	6	1.726250e-01	1.407460e-02	4	false	GAMG	6.384320e-02	5.085330e-04	3	true
21            	smoothSolver	5.617540e-03	4.235680e-04	6	1.604070e-01	1.393880e-02	4	false	GAMG	6.286110e-02	4.410150e-04	3	true
22            	smoothSolver	5.543210e-03	4.185390e-04	6	1.578270e-01	1.447320e-02	4	false	GAMG	6.191240e-02	5.104400e-04	3	true
23            	smoothSolver	5.468300e-03	4.132820e-04	6	1.488290e-01	1.357680e-02	4	false	GAMG	6.113130e-02	4.939490e-04	4	true
24            	smoothSolver	5.398770e-03	4.081960e-04	6	1.438570e-01	1.250900e-02	4	false	GAMG	6.103280e-02	4.628340e-04	3	true
25            	smoothSolver	5.332320e-03	4.036180e-04	6	1.321990e-01	1.224770e-02	4	false	GAMG	5.723370e-02	4.797520e-04	4	true
26            	smoothSolver	5.265250e-03	3.990070e-04	6	1.265520e-01	1.156960e-02	4	false	GAMG	5.669790e-02	4.147480e-04	3	true
27            	smoothSolver	5.196330e-03	3.940700e-04	6	1.221600e-01	1.135810e-02	4	false	GAMG	5.533320e-02	4.281700e-04	4	true
28            	smoothSolver	5.133910e-03	3.897180e-04	6	1.214550e-01	1.183050e-02	4	false	GAMG	5.685720e-02	3.765810e-04	3	true
29            	smoothSolver	5.072930e-03	3.855440e-04	6	1.220130e-01	1.190440e-02	4	false	GAMG	5.715790e-02	5.680750e-04	3	true
30            	smoothSolver	5.010690e-03	3.812940e-04	6	1.157380e-01	1.132360e-02	4	false	GAMG	5.520860e-02	4.325640e-04	4	true
31            	smoothSolver	4.950070e-03	3.771520e-04	6	1.183760e-01	7.759560e-03	5	false	GAMG	5.708660e-02	4.923650e-04	4	true
32            	smoothSolver	4.884240e-03	3.725680e-04	6	1.085970e-01	1.043690e-02	4	false	GAMG	5.641890e-02	4.911770e-04	4	true
33            	smoothSolver	4.827180e-03	3.687970e-04	6	1.107830e-01	1.053980e-02	4	false	GAMG	5.784000e-02	5.210200e-04	4	true
34            	smoothSolver	4.768330e-03	3.649660e-04	6	1.008080e-01	9.306410e-03	4	false	GAMG	5.626110e-02	3.444010e-04	4	true
35            	smoothSolver	4.712610e-03	3.613910e-04	6	1.013120e-01	9.294810e-03	4	false	GAMG	5.645080e-02	5.582610e-04	3	true
36            	smoothSolver	4.656380e-03	3.578040e-04	6	9.819440e-02	6.634640e-03	5	false	GAMG	5.717730e-02	3.468280e-04	4	true
37            	smoothSolver	4.603870e-03	3.544150e-04	6	1.005130e-01	1.003710e-02	4	false	GAMG	5.830810e-02	3.497860e-04	4	true
38            	smoothSolver	4.550180e-03	3.509150e-04	6	9.437630e-02	6.565690e-03	5	false	GAMG	5.748000e-02	3.504240e-04	4	true
39            	smoothSolver	4.494830e-03	3.473940e-04	6	9.679980e-02	6.346990e-03	5	false	GAMG	6.072360e-02	5.251630e-04	4	true
40            	smoothSolver	4.441830e-03	3.439020e-04	6	9.211380e-02	6.446730e-03	5	false	GAMG	5.758510e-02	2.738740e-04	5	true
41            	smoothSolver	4.388050e-03	3.405100e-04	6	8.893540e-02	8.163940e-03	4	false	GAMG	5.832660e-02	4.637850e-04	4	true
42            	smoothSolver	4.337170e-03	3.372420e-04	6	8.743490e-02	8.591940e-03	4	false	GAMG	6.040430e-02	3.798230e-04	4	true
43            	smoothSolver	4.288930e-03	3.341630e-04	6	9.306730e-02	8.502070e-03	4	false	GAMG	6.214300e-02	4.536180e-04	4	true
44            	smoothSolver	4.240830e-03	3.311330e-04	6	9.272730e-02	8.813630e-03	4	false	GAMG	6.266400e-02	4.696660e-04	4	true
45            	smoothSolver	4.192040e-03	3.281570e-04	6	8.708280e-02	7.840960e-03	4	false	GAMG	6.462780e-02	5.618730e-04	4	true
46            	smoothSolver	4.144230e-03	3.251010e-04	6	8.323580e-02	7.183790e-03	4	false	GAMG	6.493000e-02	4.448120e-04	4	true
47            	smoothSolver	4.097860e-03	3.222100e-04	6	8.719310e-02	7.855140e-03	4	false	GAMG	6.582670e-02	4.512750e-04	4	true
48            	smoothSolver	4.053840e-03	3.195200e-04	6	8.619760e-02	7.139480e-03	4	false	GAMG	6.905450e-02	4.812800e-04	4	true
49            	smoothSolver	4.010660e-03	3.169180e-04	6	8.822230e-02	6.478800e-03	4	false	GAMG	6.688120e-02	4.893740e-04	4	true
50            	smoothSolver	3.968760e-03	3.142820e-04	6	8.032600e-02	5.878820e-03	4	false	GAMG	7.055170e-02	4.344240e-04	4	true
51            	smoothSolver	3.927410e-03	3.117060e-04	6	8.325310e-02	6.407740e-03	4	false	GAMG	7.381200e-02	5.741470e-04	4	true
52            	smoothSolver	3.888470e-03	3.092610e-04	6	7.700620e-02	6.064090e-03	4	false	GAMG	7.002630e-02	5.029900e-04	4	true
53            	smoothSolver	3.848210e-03	3.067680e-04	6	8.082580e-02	5.874430e-03	4	false	GAMG	7.914140e-02	4.374620e-04	4	true
54            	smoothSolver	3.811040e-03	3.044730e-04	6	7.998540e-02	6.370550e-03	4	false	GAMG	7.565750e-02	6.283900e-04	4	true
55            	smoothSolver	3.774150e-03	3.022090e-04	6	8.042720e-02	6.605540e-03	4	false	GAMG	8.343360e-02	6.964400e-04	5	true
56            	smoothSolver	3.738850e-03	3.000070e-04	6	7.825610e-02	6.300820e-03	4	false	GAMG	8.896010e-02	8.656420e-04	4	true
57            	smoothSolver	3.707030e-03	2.979780e-04	6	7.991970e-02	6.120130e-03	4	false	GAMG	8.853570e-02	8.440610e-04	4	true
58            	smoothSolver	3.672580e-03	2.958660e-04	6	8.290310e-02	5.421200e-03	4	false	GAMG	8.733540e-02	8.002080e-04	4	true
59            	smoothSolver	3.640670e-03	2.938500e-04	6	7.693990e-02	4.972690e-03	4	false	GAMG	9.284860e-02	4.240350e-04	4	true
60            	smoothSolver	3.610930e-03	2.919650e-04	6	7.593760e-02	5.156780e-03	4	false	GAMG	9.280270e-02	6.583720e-04	4	true
61            	smoothSolver	3.581420e-03	2.901470e-04	6	7.859180e-02	6.462010e-03	4	false	GAMG	1.046600e-01	5.057040e-04	6	true
62            	smoothSolver	3.554300e-03	2.884830e-04	6	7.981440e-02	5.915140e-03	4	false	GAMG	9.673450e-02	8.113830e-04	5	true
63            	smoothSolver	3.528480e-03	2.869470e-04	6	7.871460e-02	5.917990e-03	4	false	GAMG	1.117490e-01	6.898400e-04	5	true
64            	smoothSolver	3.502510e-03	2.853870e-04	6	8.506910e-02	6.248580e-03	4	false	GAMG	1.169110e-01	1.082010e-03	4	true
65            	smoothSolver	3.479940e-03	2.840510e-04	6	7.896440e-02	5.258180e-03	4	false	GAMG	1.019690e-01	7.445810e-04	5	true
66            	smoothSolver	3.456620e-03	2.827010e-04	6	8.007530e-02	5.125260e-03	4	false	GAMG	1.103430e-01	7.283990e-04	4	true
67            	smoothSolver	3.436250e-03	2.814700e-04	6	8.201630e-02	5.822400e-03	4	false	GAMG	1.285730e-01	1.141960e-03	4	true
68            	smoothSolver	3.415160e-03	2.801390e-04	6	8.437910e-02	5.709980e-03	4	false	GAMG	1.318520e-01	8.096640e-04	4	true
69            	smoothSolver	3.394220e-03	2.788550e-04	6	8.088000e-02	5.478840e-03	4	false	GAMG	1.243100e-01	8.217700e-04	4	true
70            	smoothSolver	3.376110e-03	2.777090e-04	6	8.025290e-02	4.950990e-03	4	false	GAMG	1.297890e-01	1.184770e-03	4	true
71            	smoothSolver	3.359050e-03	2.766690e-04	6	7.812210e-02	5.520140e-03	4	false	GAMG	1.309700e-01	1.204610e-03	4	true
72            	smoothSolver	3.341970e-03	2.755790e-04	6	8.320430e-02	5.337120e-03	4	false	GAMG	1.407830e-01	7.522850e-04	4	true
73            	smoothSolver	3.326430e-03	2.746240e-04	6	8.438150e-02	5.851610e-03	4	false	GAMG	1.386600e-01	9.216060e-04	5	true
74            	smoothSolver	3.311480e-03	2.736520e-04	6	8.857480e-02	6.015670e-03	4	false	GAMG	1.380300e-01	1.227000e-03	4	true
75            	smoothSolver	3.297690e-03	2.727890e-04	6	9.447020e-02	9.392690e-03	3	false	GAMG	1.414610e-01	1.098520e-03	5	true
76            	smoothSolver	3.284230e-03	2.719350e-04	6	9.561800e-02	8.620260e-03	3	false	GAMG	1.428210e-01	8.454150e-04	4	true
77            	smoothSolver	3.270990e-03	2.711030e-04	6	1.002670e-01	9.216840e-03	3	false	GAMG	1.600550e-01	1.097050e-03	4	true
78            	smoothSolver	3.259340e-03	2.704040e-04	6	9.728460e-02	6.288620e-03	4	false	GAMG	1.438120e-01	1.117470e-03	4	true
79            	smoothSolver	3.247830e-03	2.697040e-04	6	9.722390e-02	5.825590e-03	4	false	GAMG	1.440420e-01	1.006990e-03	4	true
80            	smoothSolver	3.235990e-03	2.689540e-04	6	1.113810e-01	7.182770e-03	4	false	GAMG	1.613890e-01	1.510270e-03	4	true
81            	smoothSolver	3.226680e-03	2.683640e-04	6	1.006900e-01	9.099980e-03	3	false	GAMG	1.570640e-01	1.321390e-03	5	true
82            	smoothSolver	3.215070e-03	2.676260e-04	6	9.656330e-02	8.925410e-03	3	false	GAMG	1.481230e-01	9.999880e-04	4	true
83            	smoothSolver	3.206090e-03	2.670170e-04	6	9.360440e-02	8.833900e-03	3	false	GAMG	1.294500e-01	1.114440e-03	4	true
84            	smoothSolver	3.197220e-03	2.664340e-04	6	9.721460e-02	5.855320e-03	4	false	GAMG	1.482270e-01	9.907310e-04	4	true
85            	smoothSolver	3.188080e-03	2.658470e-04	6	9.720170e-02	9.174200e-03	3	false	GAMG	1.439360e-01	7.965070e-04	4	true
86            	smoothSolver	3.180220e-03	2.652840e-04	6	9.343180e-02	8.387670e-03	3	false	GAMG	1.478400e-01	8.339590e-04	4	true
87            	smoothSolver	3.172460e-03	2.647350e-04	6	9.405920e-02	7.760480e-03	3	false	GAMG	1.442630e-01	1.143380e-03	4	true
88            	smoothSolver	3.164240e-03	2.641690e-04	6	1.038230e-01	9.761600e-03	3	false	GAMG	1.601530e-01	1.222090e-03	4	true
89            	smoothSolver	3.158310e-03	2.636870e-04	6	1.030410e-01	9.531120e-03	3	false	GAMG	1.760990e-01	1.342420e-03	4	true
90            	smoothSolver	3.151600e-03	2.631070e-04	6	1.021690e-01	1.004120e-02	3	false	GAMG	1.741400e-01	1.280160e-03	4	true
91            	smoothSolver	3.145890e-03	2.626940e-04	6	9.780350e-02	8.513480e-03	3	false	GAMG	1.648550e-01	7.978330e-04	4	true
92            	smoothSolver	3.139880e-03	2.622500e-04	6	9.894780e-02	9.176400e-03	3	false	GAMG	1.642700e-01	1.623000e-03	4	true
93            	smoothSolver	3.134100e-03	2.617270e-04	6	9.588390e-02	8.743240e-03	3	false	GAMG	1.688850e-01	1.229660e-03	4	true
94            	smoothSolver	3.129080e-03	2.613070e-04	6	1.040100e-01	8.349910e-03	3	false	GAMG	1.715720e-01	1.226280e-03	4	true
95            	smoothSolver	3.123540e-03	2.608410e-04	6	1.046190e-01	8.356320e-03	3	false	GAMG	1.566480e-01	9.452940e-04	4	true
96            	smoothSolver	3.118380e-03	2.604140e-04	6	1.054010e-01	8.829220e-03	3	false	GAMG	1.494810e-01	1.151070e-03	4	true
97            	smoothSolver	3.114160e-03	2.599830e-04	6	1.004450e-01	8.534030e-03	3	false	GAMG	1.767570e-01	1.529560e-03	4	true
98            	smoothSolver	3.109400e-03	2.595810e-04	6	1.002290e-01	8.032220e-03	3	false	GAMG	1.739790e-01	1.421530e-03	4	true
99            	smoothSolver	3.104240e-03	2.591410e-04	6	1.020320e-01	7.535160e-03	3	false	GAMG	1.683420e-01	1.331360e-03	4	true
100           	smoothSolver	3.100620e-03	2.587430e-04	6	1.112530e-01	8.814730e-03	3	false	GAMG	1.808540e-01	1.326700e-03	4	true
101           	smoothSolver	3.095850e-03	2.582770e-04	6	1.164260e-01	9.528650e-03	3	false	GAMG	1.898160e-01	1.144160e-03	4	true
102           	smoothSolver	3.091590e-03	2.578720e-04	6	1.036380e-01	8.739310e-03	3	false	GAMG	1.678060e-01	1.420860e-03	4	true
103           	smoothSolver	3.087450e-03	2.574470e-04	6	1.065980e-01	9.732710e-03	3	false	GAMG	1.839100e-01	1.643090e-03	4	true
104           	smoothSolver	3.083840e-03	2.570810e-04	6	1.171510e-01	9.792900e-03	3	false	GAMG	1.900850e-01	1.697650e-03	4	true
105           	smoothSolver	3.078500e-03	2.566420e-04	6	1.149810e-01	8.530380e-03	3	false	GAMG	1.902900e-01	1.294690e-03	4	true
106           	smoothSolver	3.074610e-03	2.562190e-04	6	1.257820e-01	9.757800e-03	3	false	GAMG	1.864020e-01	1.753770e-03	4	true
107           	smoothSolver	3.070250e-03	2.557490e-04	6	1.265090e-01	1.010900e-02	3	false	GAMG	1.845430e-01	1.675440e-03	4	true
108           	smoothSolver	3.066340e-03	2.553900e-04	6	1.188080e-01	9.058890e-03	3	false	GAMG	1.905850e-01	1.353850e-03	4	true
109           	smoothSolver	3.060790e-03	2.549180e-04	6	1.274350e-01	9.687500e-03	3	false	GAMG	2.057120e-01	1.629290e-03	4	true
110           	smoothSolver	3.058400e-03	2.545280e-04	6	1.255270e-01	9.856390e-03	3	false	GAMG	1.914900e-01	1.067280e-03	4	true
111           	smoothSolver	3.052870e-03	2.540140e-04	6	1.251450e-01	9.956110e-03	3	false	GAMG	1.948150e-01	1.836610e-03	4	true
112           	smoothSolver	3.049000e-03	2.535600e-04	6	1.298880e-01	1.065710e-02	3	false	GAMG	2.037010e-01	1.727830e-03	4	true
113           	smoothSolver	3.042850e-03	2.529960e-04	6	1.370330e-01	1.031100e-02	3	false	GAMG	2.096600e-01	1.376120e-03	5	true
114           	smoothSolver	3.037500e-03	2.524500e-04	6	1.353700e-01	1.125140e-02	3	false	GAMG	2.121290e-01	1.879850e-03	4	true
115           	smoothSolver	3.033640e-03	2.519780e-04	6	1.393680e-01	1.065290e-02	3	false	GAMG	1.948870e-01	1.618770e-03	4	true
116           	smoothSolver	3.028250e-03	2.514490e-04	6	1.456220e-01	1.037670e-02	3	false	GAMG	1.929620e-01	1.276530e-03	4	true
117           	smoothSolver	3.024170e-03	2.509860e-04	6	1.585200e-01	1.120240e-02	3	false	GAMG	2.014610e-01	1.875480e-03	4	true
118           	smoothSolver	3.017970e-03	2.503960e-04	6	1.536230e-01	1.130560e-02	3	false	GAMG	2.294580e-01	1.814520e-03	4	true
119           	smoothSolver	3.012290e-03	2.498830e-04	6	1.496220e-01	1.240190e-02	3	false	GAMG	2.295260e-01	2.119270e-03	4	true
120           	smoothSolver	3.008530e-03	2.493700e-04	6	1.552980e-01	9.401530e-03	3	false	GAMG	2.216530e-01	1.761060e-03	4	true
121           	smoothSolver	3.002970e-03	2.488360e-04	6	1.677910e-01	1.017390e-02	3	false	GAMG	2.228880e-01	1.368710e-03	4	true
122           	smoothSolver	2.997620e-03	2.483430e-04	6	1.684470e-01	1.200360e-02	3	false	GAMG	2.034760e-01	1.606540e-03	4	true
123           	smoothSolver	2.992310e-03	2.478040e-04	6	1.772930e-01	1.236050e-02	3	false	GAMG	2.239620e-01	1.775490e-03	4	true
124           	smoothSolver	2.987760e-03	2.473140e-04	6	1.697700e-01	1.445780e-02	3	false	GAMG	2.123200e-01	1.871820e-03	4	true
125           	smoothSolver	2.983120e-03	2.468550e-04	6	1.809520e-01	1.409500e-02	3	false	GAMG	2.262550e-01	1.619200e-03	4	true
126           	smoothSolver	2.975550e-03	2.461820e-04	6	1.804040e-01	1.527000e-02	3	false	GAMG	2.414850e-01	1.753520e-03	4	true
127           	smoothSolver	2.970490e-03	2.456050e-04	6	1.878610e-01	1.481320e-02	3	false	GAMG	2.118840e-01	1.554500e-03	4	true
128           	smoothSolver	2.968260e-03	2.452140e-04	6	1.850920e-01	1.412770e-02	3	false	GAMG	1.981010e-01	1.954700e-03	4	true
129           	smoothSolver	2.963520e-03	2.446950e-04	6	1.959320e-01	1.684920e-02	3	false	GAMG	2.295940e-01	2.119330e-03	5	true
130           	smoothSolver	2.956030e-03	2.439990e-04	6	1.949970e-01	1.547610e-02	3	false	GAMG	2.299130e-01	2.083650e-03	4	true
131           	smoothSolver	2.951880e-03	2.434510e-04	6	2.022770e-01	1.535410e-02	3	false	GAMG	2.303380e-01	2.055040e-03	4	true
132           	smoothSolver	2.946960e-03	2.429260e-04	6	2.040260e-01	1.574540e-02	3	false	GAMG	2.095140e-01	1.466900e-03	5	true
133           	smoothSolver	2.944150e-03	2.424390e-04	6	1.912070e-01	1.501980e-02	3	false	GAMG	2.197420e-01	1.907810e-03	4	true
134           	smoothSolver	2.936310e-03	2.417080e-04	6	2.025520e-01	1.624200e-02	3	false	GAMG	2.116290e-01	1.608840e-03	5	true
135           	smoothSolver	2.929650e-03	2.410560e-04	6	2.113020e-01	1.806720e-02	3	false	GAMG	2.103370e-01	1.138550e-03	5	true
136           	smoothSolver	2.923280e-03	2.403370e-04	6	2.118590e-01	1.859800e-02	3	false	GAMG	2.140800e-01	1.243130e-03	5	true
137           	smoothSolver	2.917320e-03	2.397160e-04	6	2.293350e-01	2.086070e-02	3	false	GAMG	2.110360e-01	1.264250e-03	5	true
138           	smoothSolver	2.912560e-03	2.391460e-04	6	2.039910e-01	1.798020e-02	3	false	GAMG	1.816290e-01	9.352810e-04	6	true
139           	smoothSolver	2.907260e-03	2.384690e-04	6	2.381140e-01	1.737940e-02	3	false	GAMG	2.012680e-01	1.482770e-03	5	true
140           	smoothSolver	2.899640e-03	2.377820e-04	6	2.338630e-01	2.097460e-02	3	false	GAMG	2.238500e-01	1.406750e-03	5	true
141           	smoothSolver	2.894560e-03	2.371860e-04	6	2.456170e-01	1.891960e-02	3	false	GAMG	2.140830e-01	1.911480e-03	4	true
142           	smoothSolver	2.888360e-03	2.365080e-04	6	2.567240e-01	2.207500e-02	3	false	GAMG	2.009150e-01	1.648900e-03	5	true
143           	smoothSolver	2.881430e-03	2.358750e-04	6	2.672090e-01	1.948640e-02	3	false	GAMG	2.155540e-01	2.023800e-03	4	true
144           	smoothSolver	2.874800e-03	2.351840e-04	6	2.729090e-01	2.078070e-02	3	false	GAMG	2.346390e-01	1.365720e-03	5	true
145           	smoothSolver	2.868330e-03	2.344100e-04	6	2.586630e-01	1.704420e-02	3	false	GAMG	2.155550e-01	1.731060e-03	4	true
146           	smoothSolver	2.861080e-03	2.337970e-04	6	2.585460e-01	1.957630e-02	3	false	GAMG	2.099670e-01	1.819650e-03	4	true
147           	smoothSolver	2.851230e-03	2.328860e-04	6	2.661980e-01	2.018340e-02	3	false	GAMG	1.999550e-01	1.310500e-03	5	true
148           	smoothSolver	2.843520e-03	2.321240e-04	6	2.982490e-01	2.514070e-02	3	false	GAMG	2.301320e-01	1.335750e-03	5	true
149           	smoothSolver	2.837230e-03	2.313510e-04	6	2.988790e-01	2.338670e-02	3	false	GAMG	2.382290e-01	1.283940e-03	5	true
150           	smoothSolver	2.832140e-03	2.307370e-04	6	3.166080e-01	2.366230e-02	3	false	GAMG	2.473350e-01	2.312280e-03	4	true
151           	smoothSolver	2.824020e-03	2.300780e-04	6	3.108670e-01	2.447690e-02	3	false	GAMG	2.098090e-01	1.221170e-03	5	true
152           	smoothSolver	2.815650e-03	2.292940e-04	6	3.118590e-01	2.677540e-02	3	false	GAMG	2.295310e-01	1.236230e-03	5	true
153           	smoothSolver	2.810100e-03	2.285660e-04	6	3.433600e-01	3.212910e-02	3	false	GAMG	2.397900e-01	1.487260e-03	5	true
154           	smoothSolver	2.798090e-03	2.276520e-04	6	3.445560e-01	3.048070e-02	3	false	GAMG	2.209650e-01	1.395860e-03	5	true
155           	smoothSolver	2.791560e-03	2.269380e-04	6	3.475070e-01	2.685880e-02	3	false	GAMG	2.245060e-01	2.041030e-03	4	true
156           	smoothSolver	2.784310e-03	2.261480e-04	6	3.827310e-01	3.042700e-02	3	false	GAMG	2.480050e-01	2.157370e-03	4	true
157           	smoothSolver	2.777030e-03	2.254130e-04	6	3.759990e-01	2.791720e-02	3	false	GAMG	2.382750e-01	2.285240e-03	4	true
158           	smoothSolver	2.769510e-03	2.246760e-04	6	3.833520e-01	2.748870e-02	3	false	GAMG	2.341380e-01	1.157520e-03	5	true
159           	smoothSolver	2.760660e-03	2.239440e-04	6	3.640990e-01	3.028830e-02	3	false	GAMG	1.979180e-01	1.111960e-03	5	true
160           	smoothSolver	2.755570e-03	2.231240e-04	6	3.899510e-01	3.021920e-02	3	false	GAMG	2.250040e-01	1.301890e-03	5	true
161           	smoothSolver	2.747880e-03	2.222860e-04	6	3.949110e-01	2.621700e-02	3	false	GAMG	2.299500e-01	1.403770e-03	5	true
162           	smoothSolver	2.740430e-03	2.215890e-04	6	4.357480e-01	3.470310e-02	3	false	GAMG	2.227770e-01	1.615230e-03	5	true
163           	smoothSolver	2.733880e-03	2.208490e-04	6	3.875010e-01	2.420150e-02	3	false	GAMG	2.042310e-01	1.474730e-03	5	true
164           	smoothSolver	2.726190e-03	2.201490e-04	6	4.247260e-01	2.895600e-02	3	false	GAMG	2.147530e-01	1.995350e-03	4	true
165           	smoothSolver	2.716030e-03	2.192050e-04	6	4.450820e-01	2.729030e-02	3	false	GAMG	2.428920e-01	1.727060e-03	4	true
166           	smoothSolver	2.706850e-03	2.182890e-04	6	4.329940e-01	3.136640e-02	3	false	GAMG	2.394620e-01	2.182700e-03	4	true
167           	smoothSolver	2.700070e-03	2.175460e-04	6	3.918710e-01	2.770020e-02	3	false	GAMG	2.278810e-01	1.563260e-03	5	true
168           	smoothSolver	2.692140e-03	2.167460e-04	6	3.885800e-01	3.042090e-02	3	false	GAMG	2.319100e-01	2.100420e-03	4	true
169           	smoothSolver	2.683900e-03	2.159510e-04	6	3.959940e-01	2.822370e-02	3	false	GAMG	2.180250e-01	1.292240e-03	5	true
170           	smoothSolver	2.672970e-03	2.149900e-04	6	3.929070e-01	2.934310e-02	3	false	GAMG	2.531570e-01	2.259530e-03	4	true
171           	smoothSolver	2.667700e-03	2.142790e-04	6	4.085280e-01	3.105480e-02	3	false	GAMG	2.466520e-01	1.414230e-03	5	true
172           	smoothSolver	2.661330e-03	2.135820e-04	6	4.153920e-01	3.243970e-02	3	false	GAMG	2.485020e-01	2.260970e-03	5	true
173           	smoothSolver	2.651790e-03	2.128060e-04	6	3.846130e-01	3.543980e-02	3	false	GAMG	2.332110e-01	1.700230e-03	5	true
174           	smoothSolver	2.640540e-03	2.118270e-04	6	4.030350e-01	3.660620e-02	3	false	GAMG	2.455710e-01	2.155470e-03	5	true
175           	smoothSolver	2.631290e-03	2.109410e-04	6	3.786460e-01	2.852730e-02	3	false	GAMG	2.373560e-01	2.246330e-03	5	true
176           	smoothSolver	2.619160e-03	2.099710e-04	6	4.001050e-01	3.833390e-02	3	false	GAMG	2.498290e-01	2.013820e-03	5	true
177           	smoothSolver	2.615300e-03	2.092730e-04	6	3.946350e-01	3.328020e-02	3	false	GAMG	2.564640e-01	8.531250e-04	6	true
178           	smoothSolver	2.603390e-03	2.081990e-04	6	3.897380e-01	3.837050e-02	3	false	GAMG	2.260750e-01	1.325910e-03	5	true
179           	smoothSolver	2.594710e-03	2.074700e-04	6	4.034660e-01	3.554140e-02	3	false	GAMG	2.234120e-01	1.371350e-03	5	true
180           	smoothSolver	2.585470e-03	2.066200e-04	6	3.650070e-01	3.114490e-02	3	false	GAMG	2.349370e-01	1.522390e-03	5	true
181           	smoothSolver	2.575860e-03	2.058450e-04	6	3.543360e-01	2.967850e-02	3	false	GAMG	2.226330e-01	1.703270e-03	5	true
182           	smoothSolver	2.567010e-03	2.051130e-04	6	3.481900e-01	2.825740e-02	3	false	GAMG	2.088050e-01	2.012610e-03	4	true
183           	smoothSolver	2.561850e-03	2.043610e-04	6	3.966750e-01	3.809790e-02	3	false	GAMG	2.164280e-01	2.117730e-03	4	true
184           	smoothSolver	2.555110e-03	2.035070e-04	6	4.311870e-01	3.748810e-02	3	false	GAMG	2.221110e-01	1.255470e-03	5	true
185           	smoothSolver	2.545110e-03	2.027940e-04	6	3.966250e-01	3.386530e-02	3	false	GAMG	2.086340e-01	1.572070e-03	5	true
186           	smoothSolver	2.535580e-03	2.018820e-04	6	4.226730e-01	3.312380e-02	3	false	GAMG	2.220060e-01	1.893470e-03	5	true
187           	smoothSolver	2.527940e-03	2.011260e-04	6	4.026430e-01	3.163230e-02	3	false	GAMG	2.196590e-01	1.659560e-03	5	true
188           	smoothSolver	2.518590e-03	2.002060e-04	6	3.950900e-01	3.679500e-02	3	false	GAMG	2.287060e-01	1.570350e-03	5	true
189           	smoothSolver	2.508990e-03	1.993590e-04	6	4.220590e-01	3.378000e-02	3	false	GAMG	2.252390e-01	1.537460e-03	5	true
190           	smoothSolver	2.501260e-03	1.985350e-04	6	3.889400e-01	3.396190e-02	3	false	GAMG	2.329340e-01	1.829690e-03	5	true
191           	smoothSolver	2.492150e-03	1.977030e-04	6	4.005740e-01	2.845080e-02	3	false	GAMG	2.275940e-01	1.317160e-03	5	true
192           	smoothSolver	2.484570e-03	1.970490e-04	6	4.420350e-01	3.286100e-02	3	false	GAMG	2.377070e-01	1.251340e-03	5	true
193           	smoothSolver	2.475170e-03	1.963470e-04	6	4.456490e-01	3.420760e-02	3	false	GAMG	2.193810e-01	1.243680e-03	5	true
194           	smoothSolver	2.467320e-03	1.954410e-04	6	4.570980e-01	3.394750e-02	3	false	GAMG	2.361550e-01	1.464310e-03	5	true
195           	smoothSolver	2.453670e-03	1.944660e-04	6	4.468610e-01	3.497050e-02	3	false	GAMG	2.208220e-01	1.702390e-03	5	true
196           	smoothSolver	2.445590e-03	1.935950e-04	6	4.564440e-01	3.290910e-02	3	false	GAMG	2.306650e-01	1.479900e-03	5	true
197           	smoothSolver	2.436420e-03	1.927820e-04	6	4.547120e-01	3.323950e-02	3	false	GAMG	2.197300e-01	1.472090e-03	5	true
198           	smoothSolver	2.426500e-03	1.919430e-04	6	4.396390e-01	2.723480e-02	3	false	GAMG	2.182230e-01	1.350880e-03	5	true
199           	smoothSolver	2.416230e-03	1.909270e-04	6	4.623000e-01	3.355610e-02	3	false	GAMG	2.280490e-01	1.572360e-03	5	true
200           	smoothSolver	2.405070e-03	1.900880e-04	6	4.349430e-01	3.228040e-02	3	false	GAMG	2.197410e-01	2.045910e-03	5	true
201           	smoothSolver	2.394530e-03	1.891130e-04	6	4.390840e-01	2.873300e-02	3	false	GAMG	2.262990e-01	1.807310e-03	5	true
202           	smoothSolver	2.387540e-03	1.883450e-04	6	4.000790e-01	3.262880e-02	3	false	GAMG	2.164400e-01	1.936340e-03	4	true
203           	smoothSolver	2.377300e-03	1.873970e-04	6	4.705140e-01	3.660500e-02	3	false	GAMG	2.211060e-01	1.127570e-03	5	true
204           	smoothSolver	2.369790e-03	1.865320e-04	6	4.786380e-01	3.552050e-02	3	false	GAMG	2.352610e-01	2.178870e-03	5	true
205           	smoothSolver	2.358170e-03	1.854790e-04	6	4.736360e-01	3.452500e-02	3	false	GAMG	2.273730e-01	1.215230e-03	5	true
206           	smoothSolver	2.348800e-03	1.846450e-04	6	4.613380e-01	3.282120e-02	3	false	GAMG	2.347590e-01	1.256500e-03	5	true
207           	smoothSolver	2.346200e-03	1.840130e-04	6	4.734510e-01	3.086080e-02	3	false	GAMG	2.397490e-01	1.435850e-03	5	true
208           	smoothSolver	2.338490e-03	1.832620e-04	6	4.702460e-01	3.365270e-02	3	false	GAMG	2.387740e-01	1.322380e-03	5	true
209           	smoothSolver	2.324700e-03	1.821480e-04	6	4.397280e-01	3.534300e-02	3	false	GAMG	2.162080e-01	1.547020e-03	5	true
210           	smoothSolver	2.314020e-03	1.811530e-04	6	4.319740e-01	3.189050e-02	3	false	GAMG	2.473880e-01	1.589720e-03	5	true
211           	smoothSolver	2.305730e-03	1.803630e-04	6	4.398600e-01	3.033800e-02	3	false	GAMG	2.541220e-01	1.747130e-03	5	true
212           	smoothSolver	2.298520e-03	1.795180e-04	6	4.001490e-01	2.662090e-02	3	false	GAMG	2.365110e-01	1.305190e-03	5	true
213           	smoothSolver	2.288690e-03	1.786150e-04	6	3.862290e-01	2.860940e-02	3	false	GAMG	2.359100e-01	1.914830e-03	5	true
214           	smoothSolver	2.280090e-03	1.778920e-04	6	3.957230e-01	2.412400e-02	3	false	GAMG	2.377170e-01	1.205760e-03	5	true
215           	smoothSolver	2.265650e-03	1.766420e-04	6	3.661730e-01	2.452410e-02	3	false	GAMG	2.264680e-01	2.132110e-03	5	true
216           	smoothSolver	2.256680e-03	1.758360e-04	6	3.681160e-01	2.165370e-02	3	false	GAMG	2.157240e-01	1.569550e-03	5	true
217           	smoothSolver	2.249290e-03	1.750580e-04	6	3.583320e-01	2.608490e-02	3	false	GAMG	2.304500e-01	1.978720e-03	5	true
218           	smoothSolver	2.235570e-03	1.740090e-04	6	4.016650e-01	2.666650e-02	3	false	GAMG	2.316390e-01	1.470210e-03	5	true
219           	smoothSolver	2.223430e-03	1.729780e-04	6	3.816150e-01	2.559630e-02	3	false	GAMG	2.015630e-01	1.463210e-03	5	true
220           	smoothSolver	2.215540e-03	1.720830e-04	6	3.741400e-01	2.667210e-02	3	false	GAMG	2.160030e-01	1.522440e-03	5	true
221           	smoothSolver	2.210420e-03	1.713650e-04	6	3.623700e-01	2.533350e-02	3	false	GAMG	1.936680e-01	1.486110e-03	5	true
222           	smoothSolver	2.199340e-03	1.705400e-04	6	3.876120e-01	2.860980e-02	3	false	GAMG	2.347020e-01	1.718730e-03	5	true
223           	smoothSolver	2.187570e-03	1.694240e-04	6	3.938530e-01	2.469120e-02	3	false	GAMG	2.144000e-01	1.370240e-03	5	true
224           	smoothSolver	2.176470e-03	1.684450e-04	6	4.184830e-01	2.538700e-02	3	false	GAMG	2.118070e-01	1.667330e-03	5	true
225           	smoothSolver	2.165670e-03	1.673210e-04	6	3.953660e-01	2.687690e-02	3	false	GAMG	2.180090e-01	1.705210e-03	5	true
226           	smoothSolver	2.158950e-03	1.664540e-04	6	3.886080e-01	2.601120e-02	3	false	GAMG	2.167650e-01	1.689510e-03	5	true
227           	smoothSolver	2.143290e-03	1.655020e-04	6	3.737090e-01	2.287150e-02	3	false	GAMG	2.053290e-01	1.312040e-03	5	true
228           	smoothSolver	2.136310e-03	1.647840e-04	6	3.584690e-01	2.547230e-02	3	false	GAMG	2.305930e-01	1.910970e-03	5	true
229           	smoothSolver	2.126850e-03	1.636900e-04	6	3.861030e-01	2.783070e-02	3	false	GAMG	2.336110e-01	1.812280e-03	5	true
230           	smoothSolver	2.116100e-03	1.626060e-04	6	3.529440e-01	2.320700e-02	3	false	GAMG	2.187090e-01	1.449550e-03	5	true
231           	smoothSolver	2.109260e-03	1.619260e-04	6	3.883850e-01	2.537710e-02	3	false	GAMG	2.206050e-01	1.807120e-03	5	true
232           	smoothSolver	2.098710e-03	1.611090e-04	6	3.631450e-01	2.403430e-02	3	false	GAMG	2.072850e-01	1.489570e-03	5	true