y,epsilon,k,nut,U_0,U_1,U_2
0.000567512,5.67982e-05,3.87985e-06,8.9702e-10,0.0146399,-1.03149e-09,0
0.000851268,8.51923e-05,5.81973e-06,1.34553e-09,0.0219599,-1.54723e-09,0
0.00113502,0.000113586,7.75955e-06,1.79403e-09,0.0292798,-1.65574e-09,0
0.00174332,0.00019621,2.06338e-05,7.32107e-09,0.0446941,-4.919e-09,9.83066e-24
0.00235161,0.000278833,3.35079e-05,1.2848e-08,0.0601084,-7.07966e-09,1.57043e-23
0.00267761,0.00033707,4.7707e-05,2.22662e-08,0.068357,-1.03569e-08,1.04729e-23
0.00300362,0.000395308,6.19061e-05,3.16844e-08,0.0766055,-1.36341e-08,5.2415e-24
0.00332962,0.000453546,7.61052e-05,4.11025e-08,0.0848541,-1.69114e-08,1.00874e-26
0.00470391,0.000755565,0.000169216,1.25174e-07,0.119572,-3.47296e-08,-1.57561e-23
0.00916136,0.00250871,0.000922307,1.67497e-06,0.231177,-1.53081e-07,0
0.0147607,0.00689694,0.00312613,1.73688e-05,0.362078,-4.497e-07,0
0.0152906,0.00737876,0.00338094,2.03082e-05,0.3734,-4.84602e-07,0
0.0158205,0.00786048,0.00363571,2.32468e-05,0.384721,-5.09573e-07,0
0.0161045,0.00808535,0.00376598,2.55326e-05,0.3901,-5.26804e-07,0
0.0163884,0.00831021,0.00389625,2.78184e-05,0.395479,-5.44035e-07,0
0.0175244,0.00920967,0.00441731,3.69617e-05,0.416996,-6.12958e-07,0
0.0218326,0.0112944,0.00598843,8.18497e-05,0.485355,-7.78174e-07,0
0.0224851,0.0114581,0.00617726,8.96037e-05,0.494332,-7.97849e-07,0
0.0231376,0.0116219,0.00636608,9.73564e-05,0.503309,-8.05015e-07,0
0.0245365,0.0116529,0.00665145,0.000115889,0.519476,-8.23923e-07,6.71008e-23
0.0259353,0.0116839,0.00693681,0.00013442,0.535644,-8.31482e-07,1.13516e-22
0.0274347,0.0114998,0.00714212,0.000155966,0.550211,-8.31775e-07,5.27735e-23
0.0289341,0.0113157,0.00734744,0.000177511,0.56478,-8.22827e-07,1.07571e-23
0.0293359,0.0112369,0.00738288,0.000183651,0.568075,-8.19209e-07,-6.01956e-24
0.0297376,0.0111581,0.00741832,0.000189792,0.571371,-8.15591e-07,-2.27962e-23
0.0305412,0.0110004,0.0074892,0.000202074,0.577962,-8.08355e-07,-5.63496e-23
0.0308626,0.0109373,0.00751755,0.000206986,0.580599,-8.0546e-07,-6.9771e-23
0.0311841,0.0108743,0.0075459,0.000211899,0.583235,-8.02566e-07,-8.31923e-23
0.0374399,0.00952056,0.00787595,0.000312277,0.626154,-7.01179e-07,5.89655e-23
0.0383631,0.0093193,0.00790487,0.000327535,0.631657,-6.85118e-07,8.84482e-23
0.0392863,0.00911809,0.00793382,0.000342792,0.637159,-6.67854e-07,1.04671e-22
0.0412654,0.00872113,0.00796552,0.000376186,0.647325,-6.31223e-07,8.57292e-23
0.0432445,0.00832421,0.00799724,0.00040958,0.657491,-5.95837e-07,6.11659e-23
0.0453658,0.00794773,0.00800984,0.000445761,0.666952,-5.56466e-07,-3.14422e-23
0.0608271,0.00580235,0.00796695,0.000708601,0.722826,-3.12236e-07,0
0.0614802,0.0057301,0.00796209,0.000719598,0.724814,-3.07038e-07,0
0.0621332,0.00565785,0.00795723,0.000730595,0.726803,-3.01839e-07,0
0.0649332,0.00539697,0.00793184,0.00077702,0.734401,-2.6624e-07,0
0.0663332,0.00526653,0.00791915,0.000800233,0.738201,-2.48441e-07,0
0.0677332,0.0051361,0.00790647,0.000823449,0.742,-2.41053e-07,0
0.0707343,0.00490112,0.00787649,0.000872252,0.749299,-2.10703e-07,0
0.0737355,0.00466614,0.00784651,0.000921058,0.756598,-1.9147e-07,0
0.0769523,0.00445459,0.00781282,0.000972183,0.763643,-1.67943e-07,0
0.0801692,0.00424305,0.00777914,0.00102331,0.770688,-1.55474e-07,0
0.0836172,0.0040525,0.00774235,0.00107671,0.777518,-1.39791e-07,0
0.0870652,0.00386195,0.00770557,0.00113011,0.784347,-1.34249e-07,0
0.090761,0.00369011,0.00766609,0.00118572,0.790992,-1.26597e-07,8.40417e-23
0.0944567,0.00351828,0.00762661,0.00124134,0.797638,-1.27385e-07,1.49897e-22
0.0984181,0.00336307,0.00758467,0.00129912,0.804128,-1.26902e-07,6.82945e-23
0.102379,0.00320787,0.00754274,0.0013569,0.810617,-1.32649e-07,4.34983e-24
0.106625,0.00306744,0.00749849,0.00141678,0.816974,-1.37519e-07,-4.16769e-24
0.110871,0.00292701,0.00745423,0.00147665,0.823331,-1.46324e-07,-1.75229e-23
0.115423,0.00279969,0.0074077,0.00153856,0.829576,-1.5401e-07,-9.46597e-24
0.119974,0.00267238,0.00736116,0.00160046,0.83582,-1.63799e-07,3.35339e-24
0.124852,0.00255673,0.00731232,0.0016643,0.841969,-1.71829e-07,-7.22879e-23
0.12973,0.00244107,0.00726348,0.00172814,0.848118,-1.8096e-07,-1.24875e-22
0.134959,0.0023358,0.00721226,0.0017938,0.854186,-1.87379e-07,-5.12114e-23
0.140188,0.00223052,0.00716105,0.00185947,0.860255,-1.94761e-07,0
0.145792,0.00213449,0.00710733,0.00192682,0.866256,-1.9867e-07,0
0.151397,0.00203847,0.00705362,0.00199418,0.872257,-2.03895e-07,0
0.157404,0.0019507,0.00699726,0.00206306,0.878201,-2.0545e-07,0
0.163411,0.00186294,0.0069409,0.00213195,0.884146,-2.08716e-07,0
0.16985,0.00178257,0.00688172,0.00220217,0.890043,-2.08154e-07,0
0.176289,0.0017022,0.00682254,0.00227239,0.895941,-2.09355e-07,0
0.18319,0.00162845,0.00676033,0.0023437,0.9018,-2.07009e-07,0
0.190092,0.00155471,0.00669812,0.00241502,0.907658,-2.06264e-07,0
0.197489,0.00148692,0.00663267,0.00248715,0.913486,-2.02095e-07,0
0.204887,0.00141913,0.00656722,0.00255928,0.919313,-1.99387e-07,0
0.212816,0.0013567,0.00649829,0.00263191,0.925114,-1.93444e-07,0
0.220745,0.00129426,0.00642935,0.00270453,0.930916,-1.8876e-07,0
0.229244,0.00123666,0.00635669,0.00277727,0.936696,-1.81632e-07,0
0.237743,0.00117906,0.00628402,0.00285001,0.942477,-1.75635e-07,0
0.246853,0.00112582,0.00620735,0.00292244,0.94824,-1.67869e-07,0
0.255962,0.00107259,0.00613068,0.00299486,0.954002,-1.6116e-07,0
0.265727,0.0010233,0.00604974,0.00306647,0.95975,-1.52677e-07,0
0.275491,0.00097401,0.0059688,0.00313808,0.965498,-1.45271e-07,0
0.285957,0.000928303,0.00588331,0.00320834,0.971231,-1.36353e-07,0
0.296423,0.000882597,0.00579782,0.0032786,0.976964,-1.28502e-07,0
0.307641,0.000840146,0.00570752,0.0033469,0.982683,-1.19856e-07,0
0.318859,0.000797695,0.00561722,0.0034152,0.988401,-1.12267e-07,0
0.330883,0.00075821,0.00552184,0.00348089,0.994102,-1.039e-07,-2.88871e-23
0.342907,0.000718726,0.00542646,0.00354659,0.999803,-9.67131e-08,-4.33307e-23
0.355795,0.000681954,0.00532579,0.00360901,1.00548,-8.89206e-08,-1.5573e-23
0.368683,0.000645182,0.00522511,0.00367144,1.01116,-8.23153e-08,-1.69417e-24
0.382498,0.000610901,0.00511894,0.00372991,1.01681,-7.54594e-08,2.73789e-23
0.396312,0.00057662,0.00501278,0.00378838,1.02246,-6.9726e-08,4.19154e-23
0.411119,0.000544642,0.00490103,0.00384227,1.02807,-6.39181e-08,1.39718e-23
0.425926,0.000512664,0.00478928,0.00389616,1.03368,-5.89643e-08,0
0.441797,0.000482835,0.00467196,0.00394495,1.03924,-5.39983e-08,7.19751e-23
0.457668,0.000453006,0.00455465,0.00399373,1.04479,-4.94644e-08,1.33067e-22
0.47468,0.000425209,0.004432,0.00403709,1.05027,-4.44133e-08,6.46359e-23
0.491692,0.000397412,0.00430935,0.00408044,1.05574,-3.9869e-08,6.55181e-24
0.509926,0.000371571,0.00418186,0.00411842,1.06111,-3.57078e-08,-6.62004e-23
0.52816,0.00034573,0.00405437,0.0041564,1.06648,-3.19929e-08,-1.27952e-22
0.547704,0.00032182,0.003923,0.00418962,1.07171,-2.80995e-08,-5.87436e-23
0.567248,0.00029791,0.00379163,0.00422284,1.07693,-2.50474e-08,0
0.588197,0.000275966,0.00365795,0.00425271,1.08195,-2.34025e-08,0
0.609146,0.000254023,0.00352428,0.00428258,1.08697,-2.24892e-08,0
0.6316,0.000234148,0.00339072,0.0043116,1.09172,-2.11685e-08,0
0.654054,0.000214273,0.00325717,0.0043406,1.09647,-2.0066e-08,0
0.678122,0.000196642,0.00312727,0.00437232,1.10086,-1.79292e-08,0
0.70219,0.000179012,0.00299738,0.00440403,1.10524,-1.58943e-08,0
0.727987,0.000163872,0.00287595,0.00444243,1.10916,-1.40813e-08,0
0.753784,0.000148731,0.00275453,0.00448084,1.11307,-1.24342e-08,0
0.781436,0.000136369,0.00264763,0.0045284,1.11637,-9.29008e-09,0
0.809087,0.000124008,0.00254073,0.00457596,1.11968,-6.70116e-09,0
0.838725,0.000114729,0.00245525,0.00462951,1.12223,-5.56063e-09,-5.68275e-23
0.868363,0.00010545,0.00236977,0.00468306,1.12479,-4.65122e-09,-9.95196e-23
0.900131,9.95729e-05,0.00231303,0.00472986,1.12644,-3.92945e-09,-5.06182e-23
0.931899,9.36962e-05,0.00225629,0.00477665,1.1281,-3.32377e-09,-1.38801e-23
0.965949,9.164e-05,0.00223593,0.00479619,1.12869,-1.57799e-09,9.43893e-23
1,8.9584e-05,0.00221558,0.00481572,1.12927,0,1.75728e-22
