# Solver information
# Time        	U_solver      	Ux_initial    	Ux_final      	Ux_iters      	Uy_initial    	Uy_final      	Uy_iters      	U_converged   	p_solver      	p_initial     	p_final       	p_iters       	p_converged   
1             	smoothSolver	0.000000e+00	0.000000e+00	0	0.000000e+00	0.000000e+00	0	false	GAMG	9.999970e-01	9.505830e-03	13	true
2             	smoothSolver	9.821440e-02	9.280340e-03	8	1.000000e+00	9.103540e-02	2	false	GAMG	1.000000e+00	9.469770e-03	4	true
3             	smoothSolver	1.935990e-02	1.653780e-03	4	4.797340e-01	3.850970e-02	3	false	GAMG	1.376360e-01	1.035470e-03	7	true
4             	smoothSolver	1.565040e-02	1.430150e-03	6	4.121080e-01	3.262400e-02	3	false	GAMG	1.456240e-01	8.308690e-04	6	true
5             	smoothSolver	1.149210e-02	8.957970e-04	7	4.085650e-01	2.883410e-02	4	false	GAMG	1.516310e-01	1.113790e-03	4	true
6             	smoothSolver	8.999850e-03	8.362540e-04	7	4.517010e-01	4.019890e-02	4	false	GAMG	1.231420e-01	1.045030e-03	4	true
7             	smoothSolver	7.359920e-03	5.822020e-04	8	4.563040e-01	3.294130e-02	5	false	GAMG	1.259190e-01	7.912330e-04	6	true
8             	smoothSolver	6.253600e-03	5.400660e-04	8	3.942700e-01	3.088020e-02	5	false	GAMG	1.244110e-01	1.102560e-03	5	true
9             	smoothSolver	5.425740e-03	5.028760e-04	8	3.604310e-01	3.564360e-02	4	false	GAMG	1.154260e-01	7.481220e-04	6	true
10            	smoothSolver	4.814540e-03	4.745860e-04	8	3.123800e-01	2.829780e-02	5	false	GAMG	1.122670e-01	7.092550e-04	5	true
11            	smoothSolver	4.357750e-03	3.560200e-04	9	2.582380e-01	2.241780e-02	6	false	GAMG	1.036270e-01	7.883650e-04	7	true
12            	smoothSolver	3.981110e-03	3.416630e-04	9	2.220000e-01	2.060140e-02	6	false	GAMG	1.078330e-01	9.499590e-04	5	true
13            	smoothSolver	3.672240e-03	3.305410e-04	9	1.974520e-01	1.934630e-02	6	false	GAMG	1.012050e-01	8.421470e-04	6	true
14            	smoothSolver	3.431990e-03	3.212260e-04	9	1.627200e-01	1.323130e-02	7	false	GAMG	9.435540e-02	9.172290e-04	8	true
15            	smoothSolver	3.237130e-03	3.133850e-04	9	1.366590e-01	1.226810e-02	7	false	GAMG	9.011120e-02	8.870470e-04	12	true
16            	smoothSolver	3.067600e-03	3.067150e-04	9	1.358360e-01	1.189940e-02	7	false	GAMG	9.432920e-02	8.726090e-04	8	true
17            	smoothSolver	2.924670e-03	2.375290e-04	10	1.242550e-01	1.139400e-02	7	false	GAMG	9.469610e-02	8.427040e-04	9	true
18            	smoothSolver	2.800680e-03	2.337170e-04	10	1.221100e-01	1.157550e-02	7	false	GAMG	9.507100e-02	8.804010e-04	11	true
19            	smoothSolver	2.696990e-03	2.303370e-04	10	1.181570e-01	9.135980e-03	8	false	GAMG	9.328830e-02	9.051520e-04	12	true
20            	smoothSolver	2.641400e-03	2.272450e-04	10	1.090390e-01	8.622600e-03	8	false	GAMG	9.590950e-02	9.570810e-04	20	true
21            	smoothSolver	2.606540e-03	2.243120e-04	10	1.066150e-01	8.786180e-03	8	false	GAMG	1.017690e-01	9.988800e-04	13	true
22            	smoothSolver	2.577610e-03	2.218640e-04	10	1.035330e-01	8.741710e-03	8	false	GAMG	9.888140e-02	9.540640e-04	14	true
23            	smoothSolver	2.547000e-03	2.193860e-04	10	1.001810e-01	8.964710e-03	8	false	GAMG	9.869660e-02	9.575760e-04	17	true
24            	smoothSolver	2.520850e-03	2.173140e-04	10	9.777270e-02	8.903670e-03	8	false	GAMG	1.020660e-01	1.010630e-03	11	true
25            	smoothSolver	2.500170e-03	2.154640e-04	10	9.317980e-02	8.661220e-03	8	false	GAMG	1.028450e-01	1.007190e-03	15	true
26            	smoothSolver	2.477450e-03	2.139560e-04	10	8.925670e-02	8.261910e-03	8	false	GAMG	1.036340e-01	9.962560e-04	17	true
27            	smoothSolver	2.457750e-03	2.124680e-04	10	8.477320e-02	8.096830e-03	8	false	GAMG	1.056370e-01	1.054370e-03	12	true
28            	smoothSolver	2.437350e-03	2.109370e-04	10	7.872770e-02	7.651010e-03	8	false	GAMG	1.044540e-01	1.008140e-03	13	true
29            	smoothSolver	2.419920e-03	2.096270e-04	10	7.680290e-02	7.482020e-03	8	false	GAMG	1.046140e-01	1.015000e-03	11	true
30            	smoothSolver	2.402510e-03	2.085020e-04	10	7.591810e-02	7.358440e-03	8	false	GAMG	1.051200e-01	1.041190e-03	14	true
31            	smoothSolver	2.386220e-03	2.075140e-04	10	7.375350e-02	7.111400e-03	8	false	GAMG	1.083990e-01	1.049770e-03	8	true
32            	smoothSolver	2.372320e-03	2.065490e-04	10	7.075600e-02	6.942320e-03	8	false	GAMG	1.033600e-01	9.622140e-04	14	true
33            	smoothSolver	2.356690e-03	2.055670e-04	10	6.650250e-02	6.614480e-03	8	false	GAMG	1.013770e-01	9.505560e-04	10	true
34            	smoothSolver	2.342940e-03	2.046470e-04	10	6.354160e-02	5.063070e-03	9	false	GAMG	1.041980e-01	1.028570e-03	8	true
35            	smoothSolver	2.330420e-03	2.038950e-04	10	5.893780e-02	4.777660e-03	9	false	GAMG	1.035280e-01	1.010670e-03	9	true
36            	smoothSolver	2.315130e-03	2.029370e-04	10	5.953490e-02	4.754810e-03	9	false	GAMG	1.042750e-01	1.009030e-03	9	true
37            	smoothSolver	2.303060e-03	2.021320e-04	10	5.891090e-02	4.802040e-03	9	false	GAMG	1.068690e-01	1.009760e-03	10	true
38            	smoothSolver	2.292190e-03	2.014690e-04	10	6.072980e-02	4.962390e-03	9	false	GAMG	1.038550e-01	1.006800e-03	12	true
39            	smoothSolver	2.280940e-03	2.007860e-04	10	5.816330e-02	4.835880e-03	9	false	GAMG	1.115100e-01	1.081700e-03	9	true
40            	smoothSolver	2.269610e-03	2.000860e-04	10	5.443950e-02	4.620190e-03	9	false	GAMG	1.052900e-01	1.051150e-03	16	true
41            	smoothSolver	2.259770e-03	1.994980e-04	10	5.350080e-02	4.479970e-03	9	false	GAMG	1.001890e-01	9.704660e-04	11	true
42            	smoothSolver	2.248930e-03	1.989060e-04	10	5.214400e-02	4.362690e-03	9	false	GAMG	8.847770e-02	8.719610e-04	15	true
43            	smoothSolver	2.239820e-03	1.983910e-04	10	5.139300e-02	4.399340e-03	9	false	GAMG	9.529620e-02	8.866870e-04	10	true
44            	smoothSolver	2.230110e-03	1.978480e-04	10	5.233590e-02	4.429680e-03	9	false	GAMG	1.017580e-01	9.678250e-04	12	true
45            	smoothSolver	2.220840e-03	1.973120e-04	10	5.017490e-02	4.368420e-03	9	false	GAMG	9.723770e-02	9.249680e-04	15	true
46            	smoothSolver	2.212610e-03	1.968590e-04	10	4.916050e-02	4.231760e-03	9	false	GAMG	9.553640e-02	9.514990e-04	15	true
47            	smoothSolver	2.202510e-03	1.963370e-04	10	4.844430e-02	4.115110e-03	9	false	GAMG	9.897850e-02	9.498780e-04	14	true
48            	smoothSolver	2.194760e-03	1.959020e-04	10	4.630970e-02	3.834690e-03	9	false	GAMG	1.018780e-01	9.942540e-04	10	true
49            	smoothSolver	2.186360e-03	1.954720e-04	10	4.569200e-02	3.689370e-03	9	false	GAMG	9.944680e-02	9.798560e-04	19	true
50            	smoothSolver	2.178090e-03	1.950080e-04	10	4.568440e-02	3.721150e-03	9	false	GAMG	1.103610e-01	1.048550e-03	10	true
51            	smoothSolver	2.170120e-03	1.946010e-04	10	4.373610e-02	3.693370e-03	9	false	GAMG	1.059400e-01	1.050380e-03	8	true
52            	smoothSolver	2.162350e-03	1.942210e-04	10	4.325230e-02	3.711270e-03	9	false	GAMG	9.626810e-02	9.351970e-04	12	true
53            	smoothSolver	2.154220e-03	1.937760e-04	10	4.009060e-02	3.513190e-03	9	false	GAMG	9.229440e-02	8.891570e-04	12	true
54            	smoothSolver	2.146620e-03	1.933300e-04	10	3.995660e-02	3.483910e-03	9	false	GAMG	9.083310e-02	9.022010e-04	14	true
55            	smoothSolver	2.138610e-03	1.929000e-04	10	4.162540e-02	3.504570e-03	9	false	GAMG	1.032380e-01	9.685970e-04	10	true
56            	smoothSolver	2.131150e-03	1.925150e-04	10	4.141830e-02	3.432140e-03	9	false	GAMG	9.403030e-02	8.587880e-04	12	true
57            	smoothSolver	2.123730e-03	1.921240e-04	10	4.214400e-02	3.365740e-03	9	false	GAMG	1.027600e-01	9.411090e-04	9	true
58            	smoothSolver	2.116360e-03	1.917490e-04	10	3.985950e-02	3.506590e-03	9	false	GAMG	9.996750e-02	9.456950e-04	10	true
59            	smoothSolver	2.109630e-03	1.914180e-04	10	4.137060e-02	3.485060e-03	9	false	GAMG	1.008060e-01	9.917330e-04	12	true
60            	smoothSolver	2.101940e-03	1.910290e-04	10	3.959160e-02	3.363380e-03	9	false	GAMG	9.611750e-02	9.506330e-04	17	true
61            	smoothSolver	2.094830e-03	1.906430e-04	10	3.927780e-02	3.273220e-03	9	false	GAMG	1.056640e-01	1.021120e-03	14	true
62            	smoothSolver	2.088130e-03	1.902940e-04	10	3.968550e-02	3.207990e-03	9	false	GAMG	1.138680e-01	1.048340e-03	7	true
63            	smoothSolver	2.081090e-03	1.899660e-04	10	3.897690e-02	3.164700e-03	9	false	GAMG	1.016480e-01	9.710180e-04	12	true
64            	smoothSolver	2.074580e-03	1.896470e-04	10	3.702830e-02	3.011790e-03	9	false	GAMG	1.066040e-01	9.925600e-04	10	true
65            	smoothSolver	2.068310e-03	1.893340e-04	10	3.664340e-02	2.974260e-03	9	false	GAMG	1.033630e-01	1.019340e-03	11	true
66            	smoothSolver	2.061600e-03	1.890150e-04	10	3.702250e-02	2.944730e-03	9	false	GAMG	9.841460e-02	9.506860e-04	16	true
67            	smoothSolver	2.054890e-03	1.886710e-04	10	3.798340e-02	3.707080e-03	8	false	GAMG	1.209020e-01	1.143060e-03	7	true
68            	smoothSolver	2.048540e-03	1.883420e-04	10	3.926880e-02	3.697450e-03	8	false	GAMG	1.388420e-01	1.380880e-03	7	true
69            	smoothSolver	2.041770e-03	1.879960e-04	10	3.772330e-02	3.661090e-03	8	false	GAMG	1.156110e-01	1.099090e-03	12	true
70            	smoothSolver	2.035210e-03	1.876340e-04	10	3.949080e-02	3.760440e-03	8	false	GAMG	1.337060e-01	1.294180e-03	8	true
71            	smoothSolver	2.028540e-03	1.873000e-04	10	3.846810e-02	3.676040e-03	8	false	GAMG	1.269970e-01	1.247100e-03	10	true
72            	smoothSolver	2.021940e-03	1.869450e-04	10	3.605700e-02	2.877090e-03	9	false	GAMG	1.277270e-01	1.208890e-03	10	true
73            	smoothSolver	2.015420e-03	1.865880e-04	10	3.531790e-02	2.806620e-03	9	false	GAMG	1.307930e-01	1.300130e-03	9	true
74            	smoothSolver	2.009100e-03	1.862570e-04	10	3.377800e-02	2.728230e-03	9	false	GAMG	1.142000e-01	1.128750e-03	10	true
75            	smoothSolver	2.002590e-03	1.859210e-04	10	3.495300e-02	3.494830e-03	8	false	GAMG	1.244980e-01	1.148780e-03	8	true
76            	smoothSolver	1.996400e-03	1.855910e-04	10	3.423530e-02	3.401790e-03	8	false	GAMG	1.310790e-01	1.229640e-03	9	true
77            	smoothSolver	1.989950e-03	1.852470e-04	10	3.485130e-02	2.755080e-03	9	false	GAMG	1.386770e-01	1.298340e-03	5	true
78            	smoothSolver	1.983560e-03	1.849010e-04	10	3.468650e-02	3.335210e-03	8	false	GAMG	1.306710e-01	1.291060e-03	10	true
79            	smoothSolver	1.977160e-03	1.845630e-04	10	3.583270e-02	3.249710e-03	8	false	GAMG	1.400420e-01	1.348240e-03	10	true
80            	smoothSolver	1.970940e-03	1.842300e-04	10	3.455800e-02	3.234040e-03	8	false	GAMG	1.453050e-01	1.380710e-03	5	true
81            	smoothSolver	1.964520e-03	1.838900e-04	10	3.529300e-02	3.201370e-03	8	false	GAMG	1.458310e-01	1.347560e-03	9	true
82            	smoothSolver	1.958480e-03	1.835700e-04	10	3.332420e-02	3.110350e-03	8	false	GAMG	1.342020e-01	1.327100e-03	12	true
83            	smoothSolver	1.952330e-03	1.832340e-04	10	3.339940e-02	3.186980e-03	8	false	GAMG	1.438510e-01	1.363890e-03	10	true
84            	smoothSolver	1.946120e-03	1.828950e-04	10	3.338530e-02	3.062770e-03	8	false	GAMG	1.488520e-01	1.446060e-03	5	true
85            	smoothSolver	1.939900e-03	1.825550e-04	10	3.335900e-02	3.185980e-03	8	false	GAMG	1.419650e-01	1.331960e-03	9	true
86            	smoothSolver	1.933670e-03	1.822140e-04	10	3.185300e-02	2.967440e-03	8	false	GAMG	1.315650e-01	1.266270e-03	7	true
87            	smoothSolver	1.927650e-03	1.818820e-04	10	3.361310e-02	2.970000e-03	8	false	GAMG	1.461320e-01	1.447110e-03	5	true
88            	smoothSolver	1.921510e-03	1.815450e-04	10	3.273130e-02	2.884780e-03	8	false	GAMG	1.326480e-01	1.290320e-03	7	true
89            	smoothSolver	1.915590e-03	1.812130e-04	10	3.318030e-02	2.950330e-03	8	false	GAMG	1.352820e-01	1.218550e-03	7	true
90            	smoothSolver	1.909340e-03	1.808650e-04	10	3.222540e-02	2.970950e-03	8	false	GAMG	1.465370e-01	1.394650e-03	7	true
91            	smoothSolver	1.903140e-03	1.805140e-04	10	3.316630e-02	2.853890e-03	8	false	GAMG	1.363340e-01	1.320750e-03	6	true
92            	smoothSolver	1.897040e-03	1.801650e-04	10	3.199700e-02	2.776110e-03	8	false	GAMG	1.438880e-01	1.343260e-03	7	true
93            	smoothSolver	1.890900e-03	1.798000e-04	10	3.443220e-02	2.864400e-03	8	false	GAMG	1.450020e-01	1.409010e-03	7	true
94            	smoothSolver	1.884650e-03	1.794320e-04	10	3.231520e-02	2.762660e-03	8	false	GAMG	1.457710e-01	1.427090e-03	9	true
95            	smoothSolver	1.878490e-03	1.790740e-04	10	3.196900e-02	2.851390e-03	8	false	GAMG	1.502740e-01	1.415300e-03	12	true
96            	smoothSolver	1.872450e-03	1.787230e-04	10	3.073710e-02	2.630160e-03	8	false	GAMG	1.520350e-01	1.450000e-03	6	true
97            	smoothSolver	1.866390e-03	1.783730e-04	10	3.116450e-02	2.591790e-03	8	false	GAMG	1.665860e-01	1.117570e-03	5	true
98            	smoothSolver	1.860360e-03	1.780210e-04	10	3.083830e-02	2.616300e-03	8	false	GAMG	1.529400e-01	1.347080e-03	5	true
99            	smoothSolver	1.854360e-03	1.776590e-04	10	3.214320e-02	2.661500e-03	8	false	GAMG	1.602310e-01	1.531360e-03	5	true
100           	smoothSolver	1.848210e-03	1.772930e-04	10	3.096210e-02	2.572860e-03	8	false	GAMG	1.530150e-01	1.510940e-03	7	true
101           	smoothSolver	1.842080e-03	1.769180e-04	10	3.047200e-02	2.672200e-03	8	false	GAMG	1.517560e-01	1.491190e-03	8	true
102           	smoothSolver	1.836000e-03	1.765560e-04	10	2.917270e-02	2.511060e-03	8	false	GAMG	1.423240e-01	1.365580e-03	8	true
103           	smoothSolver	1.829800e-03	1.761760e-04	10	3.009550e-02	2.634990e-03	8	false	GAMG	1.436120e-01	1.326460e-03	9	true
104           	smoothSolver	1.823640e-03	1.757920e-04	10	3.035650e-02	2.560870e-03	8	false	GAMG	1.499270e-01	1.396230e-03	5	true
105           	smoothSolver	1.817730e-03	1.754290e-04	10	3.360140e-02	3.122130e-03	7	false	GAMG	1.593580e-01	1.479810e-03	7	true
106           	smoothSolver	1.811570e-03	1.750470e-04	10	3.283650e-02	3.271810e-03	7	false	GAMG	1.650790e-01	1.628750e-03	5	true
107           	smoothSolver	1.805580e-03	1.746720e-04	10	3.427090e-02	2.710310e-03	8	false	GAMG	1.779380e-01	1.688930e-03	7	true
108           	smoothSolver	1.799430e-03	1.742800e-04	10	3.173240e-02	3.151070e-03	7	false	GAMG	1.683340e-01	1.660360e-03	5	true
109           	smoothSolver	1.793550e-03	1.739120e-04	10	3.282670e-02	3.169020e-03	7	false	GAMG	1.740840e-01	1.727640e-03	5	true
110           	smoothSolver	1.787620e-03	1.735350e-04	10	3.269280e-02	3.147300e-03	7	false	GAMG	1.578790e-01	1.535040e-03	7	true
111           	smoothSolver	1.781660e-03	1.731550e-04	10	3.221240e-02	3.040060e-03	7	false	GAMG	1.547780e-01	1.424310e-03	7	true
112           	smoothSolver	1.775530e-03	1.727640e-04	10	3.211410e-02	2.544800e-03	8	false	GAMG	1.668630e-01	1.591260e-03	5	true
113           	smoothSolver	1.769640e-03	1.723790e-04	10	3.028240e-02	2.993140e-03	7	false	GAMG	1.719660e-01	1.641340e-03	4	true
114           	smoothSolver	1.763780e-03	1.720040e-04	10	3.213610e-02	3.038420e-03	7	false	GAMG	1.667620e-01	1.586950e-03	4	true
115           	smoothSolver	1.757830e-03	1.716240e-04	10	3.330070e-02	3.192430e-03	7	false	GAMG	1.716900e-01	1.691420e-03	5	true
116           	smoothSolver	1.751870e-03	1.712410e-04	10	3.585560e-02	3.168060e-03	7	false	GAMG	1.717400e-01	1.621250e-03	4	true
117           	smoothSolver	1.745830e-03	1.708440e-04	10	3.233750e-02	3.096680e-03	7	false	GAMG	1.655840e-01	1.515070e-03	5	true
118           	smoothSolver	1.739900e-03	1.704520e-04	10	3.262310e-02	3.212450e-03	7	false	GAMG	1.807630e-01	1.688770e-03	5	true
119           	smoothSolver	1.733810e-03	1.700590e-04	10	3.141460e-02	3.055080e-03	7	false	GAMG	1.725670e-01	1.657190e-03	9	true
120           	smoothSolver	1.727770e-03	1.696600e-04	10	3.244020e-02	3.159910e-03	7	false	GAMG	1.636130e-01	1.620240e-03	9	true
121           	smoothSolver	1.721820e-03	1.692610e-04	10	3.170330e-02	2.825850e-03	7	false	GAMG	1.822210e-01	1.304580e-03	5	true
122           	smoothSolver	1.715780e-03	1.688580e-04	10	2.852230e-02	2.643880e-03	7	false	GAMG	1.608120e-01	1.324390e-03	5	true
123           	smoothSolver	1.709910e-03	1.684590e-04	10	2.991170e-02	2.802600e-03	7	false	GAMG	1.838060e-01	1.836240e-03	4	true
124           	smoothSolver	1.703990e-03	1.680610e-04	10	3.270670e-02	2.847250e-03	7	false	GAMG	1.987710e-01	1.928560e-03	4	true
125           	smoothSolver	1.697990e-03	1.676550e-04	10	3.411090e-02	3.066060e-03	7	false	GAMG	1.768770e-01	1.739240e-03	6	true
126           	smoothSolver	1.692040e-03	1.672480e-04	10	3.454180e-02	3.169890e-03	7	false	GAMG	1.696630e-01	1.668460e-03	5	true
127           	smoothSolver	1.686170e-03	1.668340e-04	10	3.192200e-02	2.854270e-03	7	false	GAMG	1.737510e-01	1.504100e-03	5	true
128           	smoothSolver	1.680240e-03	1.664290e-04	10	3.127950e-02	2.668490e-03	7	false	GAMG	1.770420e-01	1.234170e-03	5	true
129           	smoothSolver	1.674310e-03	1.660150e-04	10	3.218340e-02	2.524350e-03	7	false	GAMG	1.786260e-01	1.710830e-03	4	true
130           	smoothSolver	1.668360e-03	1.656020e-04	10	3.318220e-02	2.718170e-03	7	false	GAMG	1.751890e-01	1.560640e-03	4	true
131           	smoothSolver	1.662460e-03	1.651920e-04	10	3.083710e-02	2.708050e-03	7	false	GAMG	1.709810e-01	1.521520e-03	5	true
132           	smoothSolver	1.656540e-03	1.647740e-04	10	3.211330e-02	2.683210e-03	7	false	GAMG	1.949510e-01	1.794140e-03	4	true
133           	smoothSolver	1.650570e-03	1.643590e-04	10	3.081940e-02	2.608280e-03	7	false	GAMG	1.720860e-01	1.643210e-03	5	true
134           	smoothSolver	1.644710e-03	1.639410e-04	10	3.030130e-02	2.592240e-03	7	false	GAMG	1.823390e-01	1.474000e-03	5	true
135           	smoothSolver	1.638940e-03	1.635230e-04	10	3.006820e-02	2.690960e-03	7	false	GAMG	1.865370e-01	1.802180e-03	4	true
136           	smoothSolver	1.633070e-03	1.631060e-04	10	3.185630e-02	2.633650e-03	7	false	GAMG	1.951170e-01	1.919330e-03	4	true
137           	smoothSolver	1.627180e-03	1.626800e-04	10	3.328930e-02	3.322410e-03	6	false	GAMG	1.954840e-01	1.943790e-03	5	true
138           	smoothSolver	1.621360e-03	1.305570e-04	11	3.293390e-02	2.767290e-03	7	false	GAMG	1.796280e-01	1.594430e-03	5	true
139           	smoothSolver	1.615440e-03	1.303130e-04	11	3.190310e-02	2.682130e-03	7	false	GAMG	1.848360e-01	1.317090e-03	5	true
140           	smoothSolver	1.609700e-03	1.299750e-04	11	3.198480e-02	2.632850e-03	7	false	GAMG	1.748060e-01	1.388250e-03	5	true
141           	smoothSolver	1.603950e-03	1.296290e-04	11	3.169810e-02	2.744330e-03	7	false	GAMG	2.050550e-01	1.982210e-03	4	true
142           	smoothSolver	1.598050e-03	1.292710e-04	11	3.186490e-02	2.770720e-03	7	false	GAMG	2.016430e-01	1.629780e-03	5	true
143           	smoothSolver	1.592310e-03	1.289250e-04	11	3.650820e-02	3.483030e-03	6	false	GAMG	2.181920e-01	2.029480e-03	4	true
144           	smoothSolver	1.586490e-03	1.285750e-04	11	3.301790e-02	2.686140e-03	7	false	GAMG	2.055560e-01	1.921580e-03	4	true
145           	smoothSolver	1.580780e-03	1.282260e-04	11	3.524210e-02	2.721910e-03	7	false	GAMG	1.961860e-01	1.857300e-03	4	true
146           	smoothSolver	1.575050e-03	1.278790e-04	11	3.062230e-02	2.690010e-03	7	false	GAMG	1.910110e-01	1.533060e-03	5	true
147           	smoothSolver	1.569310e-03	1.275310e-04	11	3.153380e-02	2.536950e-03	7	false	GAMG	2.033510e-01	2.009140e-03	4	true
148           	smoothSolver	1.563580e-03	1.271820e-04	11	3.037610e-02	2.615730e-03	7	false	GAMG	1.859730e-01	1.737250e-03	9	true
149           	smoothSolver	1.558010e-03	1.268390e-04	11	3.116020e-02	2.587190e-03	7	false	GAMG	1.829400e-01	1.516870e-03	5	true
150           	smoothSolver	1.552310e-03	1.264880e-04	11	3.287090e-02	2.607560e-03	7	false	GAMG	2.051290e-01	1.835950e-03	4	true
151           	smoothSolver	1.546640e-03	1.261380e-04	11	3.411390e-02	2.700100e-03	7	false	GAMG	2.123280e-01	1.842960e-03	4	true
152           	smoothSolver	1.541020e-03	1.257880e-04	11	3.215240e-02	2.530210e-03	7	false	GAMG	1.907450e-01	1.745300e-03	5	true
153           	smoothSolver	1.535480e-03	1.254440e-04	11	3.449460e-02	2.680730e-03	7	false	GAMG	2.089090e-01	1.894140e-03	4	true
154           	smoothSolver	1.529790e-03	1.250970e-04	11	3.508760e-02	2.773860e-03	7	false	GAMG	2.005880e-01	1.777440e-03	4	true
155           	smoothSolver	1.524260e-03	1.247520e-04	11	3.241970e-02	2.508730e-03	7	false	GAMG	1.970210e-01	1.404210e-03	5	true
156           	smoothSolver	1.518770e-03	1.244050e-04	11	3.173670e-02	3.072730e-03	6	false	GAMG	1.963410e-01	1.851920e-03	4	true
157           	smoothSolver	1.513300e-03	1.240680e-04	11	3.039350e-02	3.007830e-03	6	false	GAMG	1.961850e-01	1.708990e-03	4	true
158           	smoothSolver	1.507870e-03	1.237270e-04	11	3.247360e-02	3.233000e-03	6	false	GAMG	1.846370e-01	1.421430e-03	4	true
159           	smoothSolver	1.502410e-03	1.233810e-04	11	3.213690e-02	3.140460e-03	6	false	GAMG	1.985290e-01	1.777130e-03	4	true
160           	smoothSolver	1.497000e-03	1.230380e-04	11	3.507240e-02	3.367370e-03	6	false	GAMG	2.013160e-01	1.720040e-03	4	true
161           	smoothSolver	1.491660e-03	1.227010e-04	11	3.167050e-02	3.121940e-03	6	false	GAMG	1.814500e-01	1.650320e-03	4	true
162           	smoothSolver	1.486330e-03	1.223600e-04	11	3.193030e-02	3.081280e-03	6	false	GAMG	1.954220e-01	1.695740e-03	4	true
163           	smoothSolver	1.481080e-03	1.220250e-04	11	3.334220e-02	2.517750e-03	7	false	GAMG	2.046140e-01	1.796200e-03	4	true
164           	smoothSolver	1.475870e-03	1.216920e-04	11	3.402280e-02	3.323620e-03	6	false	GAMG	1.964840e-01	1.758550e-03	4	true
165           	smoothSolver	1.470770e-03	1.213600e-04	11	3.306560e-02	3.232810e-03	6	false	GAMG	2.103170e-01	2.062020e-03	4	true
166           	smoothSolver	1.465600e-03	1.210260e-04	11	3.398370e-02	2.628770e-03	7	false	GAMG	2.079190e-01	1.621050e-03	5	true
167           	smoothSolver	1.460570e-03	1.207020e-04	11	3.391710e-02	3.341790e-03	6	false	GAMG	1.841560e-01	1.782860e-03	4	true
168           	smoothSolver	1.455470e-03	1.203750e-04	11	3.263660e-02	2.579680e-03	7	false	GAMG	1.768230e-01	1.515820e-03	5	true
169           	smoothSolver	1.450530e-03	1.200620e-04	11	3.356380e-02	3.340450e-03	6	false	GAMG	1.798560e-01	1.591570e-03	5	true
170           	smoothSolver	1.445480e-03	1.197420e-04	11	3.420410e-02	2.668410e-03	7	false	GAMG	1.868240e-01	1.654000e-03	5	true
171           	smoothSolver	1.440530e-03	1.194220e-04	11	3.543800e-02	3.339500e-03	6	false	GAMG	2.084020e-01	1.914750e-03	4	true
172           	smoothSolver	1.435590e-03	1.191040e-04	11	3.343610e-02	2.656510e-03	7	false	GAMG	2.087350e-01	2.040950e-03	5	true
173           	smoothSolver	1.430660e-03	1.187850e-04	11	3.182320e-02	2.527680e-03	7	false	GAMG	2.025100e-01	1.583040e-03	5	true
174           	smoothSolver	1.425770e-03	1.184690e-04	11	3.209050e-02	2.539410e-03	7	false	GAMG	2.246080e-01	2.110680e-03	4	true
175           	smoothSolver	1.420970e-03	1.181560e-04	11	3.486600e-02	3.164010e-03	6	false	GAMG	2.195570e-01	1.883710e-03	4	true
176           	smoothSolver	1.416220e-03	1.178430e-04	11	3.284340e-02	2.577340e-03	7	false	GAMG	2.204070e-01	1.857530e-03	5	true
177           	smoothSolver	1.411420e-03	1.175300e-04	11	3.683760e-02	2.943840e-03	7	false	GAMG	2.283790e-01	2.038070e-03	5	true
178           	smoothSolver	1.406680e-03	1.172210e-04	11	3.557150e-02	2.839940e-03	7	false	GAMG	2.155540e-01	2.074050e-03	4	true
179           	smoothSolver	1.402020e-03	1.169150e-04	11	3.536130e-02	2.960690e-03	7	false	GAMG	1.913450e-01	1.850910e-03	5	true
180           	smoothSolver	1.397360e-03	1.166090e-04	11	3.637950e-02	2.864680e-03	7	false	GAMG	1.935530e-01	1.694160e-03	5	true
181           	smoothSolver	1.392760e-03	1.163050e-04	11	3.493470e-02	3.487270e-03	6	false	GAMG	1.804430e-01	1.656660e-03	5	true
182           	smoothSolver	1.388190e-03	1.160040e-04	11	3.864950e-02	3.001620e-03	7	false	GAMG	2.107430e-01	1.996990e-03	4	true
183           	smoothSolver	1.383620e-03	1.157020e-04	11	3.719970e-02	2.824360e-03	7	false	GAMG	2.040750e-01	1.965320e-03	5	true
184           	smoothSolver	1.379080e-03	1.154010e-04	11	3.586590e-02	3.437230e-03	6	false	GAMG	1.831450e-01	1.699300e-03	5	true
185           	smoothSolver	1.374640e-03	1.151090e-04	11	3.387270e-02	2.616100e-03	7	false	GAMG	1.776700e-01	1.592860e-03	5	true
186           	smoothSolver	1.370250e-03	1.148140e-04	11	3.435790e-02	3.295130e-03	6	false	GAMG	1.946210e-01	1.768000e-03	4	true
187           	smoothSolver	1.365840e-03	1.145200e-04	11	3.460020e-02	2.660830e-03	7	false	GAMG	1.960430e-01	1.412120e-03	5	true
188           	smoothSolver	1.361530e-03	1.142310e-04	11	3.602720e-02	3.598740e-03	6	false	GAMG	2.032270e-01	1.918660e-03	5	true
189           	smoothSolver	1.357270e-03	1.139450e-04	11	3.672840e-02	3.409990e-03	6	false	GAMG	1.951740e-01	1.933250e-03	4	true
190           	smoothSolver	1.353040e-03	1.136610e-04	11	3.551470e-02	3.159050e-03	6	false	GAMG	2.010040e-01	1.895480e-03	4	true
191           	smoothSolver	1.348800e-03	1.133720e-04	11	3.653370e-02	2.809610e-03	7	false	GAMG	1.960010e-01	1.897790e-03	4	true
192           	smoothSolver	1.344670e-03	1.130900e-04	11	3.844250e-02	3.733740e-03	6	false	GAMG	1.892260e-01	1.736510e-03	4	true
193           	smoothSolver	1.340520e-03	1.128110e-04	11	3.579870e-02	2.898010e-03	7	false	GAMG	1.861320e-01	1.825520e-03	5	true
194           	smoothSolver	1.336500e-03	1.125360e-04	11	3.782370e-02	3.027770e-03	7	false	GAMG	1.913840e-01	1.805690e-03	4	true
195           	smoothSolver	1.332520e-03	1.122600e-04	11	3.821700e-02	3.600020e-03	6	false	GAMG	1.956190e-01	1.760400e-03	4	true
196           	smoothSolver	1.328590e-03	1.119940e-04	11	3.737160e-02	3.653500e-03	6	false	GAMG	1.937560e-01	1.716760e-03	4	true
197           	smoothSolver	1.324620e-03	1.117250e-04	11	3.433100e-02	3.421470e-03	6	false	GAMG	1.824450e-01	1.358510e-03	5	true
198           	smoothSolver	1.320620e-03	1.114510e-04	11	3.576640e-02	3.465440e-03	6	false	GAMG	1.795840e-01	1.692760e-03	4	true
199           	smoothSolver	1.316730e-03	1.111790e-04	11	3.330470e-02	3.166010e-03	6	false	GAMG	1.802930e-01	1.707470e-03	4	true
200           	smoothSolver	1.312890e-03	1.109150e-04	11	3.505430e-02	3.055390e-03	7	false	GAMG	1.967880e-01	1.597750e-03	5	true
201           	smoothSolver	1.309120e-03	1.106540e-04	11	3.849190e-02	3.782280e-03	6	false	GAMG	2.211870e-01	1.864730e-03	4	true
202           	smoothSolver	1.305400e-03	1.103980e-04	11	3.565640e-02	3.525690e-03	6	false	GAMG	2.020170e-01	1.541660e-03	6	true
203           	smoothSolver	1.301680e-03	1.101400e-04	11	3.597280e-02	2.804140e-03	7	false	GAMG	2.027080e-01	1.606990e-03	5	true
204           	smoothSolver	1.297930e-03	1.098830e-04	11	4.152650e-02	3.218060e-03	7	false	GAMG	2.236960e-01	2.002670e-03	4	true
205           	smoothSolver	1.294280e-03	1.096280e-04	11	4.273100e-02	4.047660e-03	6	false	GAMG	2.141090e-01	1.944390e-03	4	true
206           	smoothSolver	1.290640e-03	1.093730e-04	11	3.929120e-02	2.908570e-03	7	false	GAMG	2.051090e-01	1.907100e-03	4	true
207           	smoothSolver	1.287060e-03	1.091230e-04	11	3.720240e-02	2.766730e-03	7	false	GAMG	1.908360e-01	1.905930e-03	4	true
208           	smoothSolver	1.283480e-03	1.088740e-04	11	3.777400e-02	3.575690e-03	6	false	GAMG	1.761190e-01	1.550620e-03	5	true
209           	smoothSolver	1.279980e-03	1.086260e-04	11	3.835420e-02	2.918850e-03	7	false	GAMG	1.894360e-01	1.662810e-03	5	true
210           	smoothSolver	1.276450e-03	1.083780e-04	11	3.672990e-02	3.608610e-03	6	false	GAMG	1.844390e-01	1.813910e-03	5	true
211           	smoothSolver	1.272990e-03	1.081310e-04	11	4.061700e-02	3.759540e-03	6	false	GAMG	2.033170e-01	1.697580e-03	5	true
212           	smoothSolver	1.269620e-03	1.078930e-04	11	3.669340e-02	3.585440e-03	6	false	GAMG	2.014240e-01	1.910950e-03	4	true
213           	smoothSolver	1.266230e-03	1.076540e-04	11	3.984320e-02	3.923400e-03	6	false	GAMG	2.017640e-01	1.892890e-03	5	true
214           	smoothSolver	1.262910e-03	1.074180e-04	11	3.713990e-02	3.561890e-03	6	false	GAMG	2.096400e-01	2.001020e-03	4	true
215           	smoothSolver	1.259570e-03	1.071800e-04	11	3.832930e-02	3.753990e-03	6	false	GAMG	2.187980e-01	1.997010e-03	4	true
216           	smoothSolver	1.256290e-03	1.069430e-04	11	3.775640e-02	3.576370e-03	6	false	GAMG	1.980810e-01	1.781040e-03	4	true
217           	smoothSolver	1.253090e-03	1.067140e-04	11	3.614730e-02	3.405210e-03	6	false	GAMG	1.947440e-01	1.741860e-03	4	true
218           	smoothSolver	1.249910e-03	1.064900e-04	11	3.502720e-02	3.236550e-03	6	false	GAMG	1.978300e-01	1.738030e-03	4	true
219           	smoothSolver	1.246680e-03	1.062640e-04	11	3.663510e-02	3.352620e-03	6	false	GAMG	1.937500e-01	1.888970e-03	4	true
220           	smoothSolver	1.243500e-03	1.060370e-04	11	3.802800e-02	3.243930e-03	6	false	GAMG	1.969710e-01	1.680210e-03	4	true
221           	smoothSolver	1.240430e-03	1.058180e-04	11	3.696040e-02	3.242140e-03	6	false	GAMG	2.041330e-01	1.778240e-03	4	true
222           	smoothSolver	1.237370e-03	1.055980e-04	11	3.670050e-02	3.320130e-03	6	false	GAMG	2.004380e-01	1.941200e-03	4	true
223           	smoothSolver	1.234330e-03	1.053820e-04	11	3.717150e-02	3.628370e-03	6	false	GAMG	2.037240e-01	1.992530e-03	4	true
224           	smoothSolver	1.231340e-03	1.051700e-04	11	3.900780e-02	3.719690e-03	6	false	GAMG	2.306270e-01	1.831640e-03	4	true
225           	smoothSolver	1.228340e-03	1.049550e-04	11	3.891950e-02	2.989800e-03	7	false	GAMG	1.880780e-01	1.810960e-03	4	true
226           	smoothSolver	1.225430e-03	1.047470e-04	11	4.336830e-02	4.310580e-03	6	false	GAMG	1.903700e-01	1.798350e-03	4	true
227           	smoothSolver	1.222520e-03	1.045380e-04	11	4.169430e-02	3.926170e-03	6	false	GAMG	1.879190e-01	1.750470e-03	4	true
228           	smoothSolver	1.219650e-03	1.043320e-04	11	4.503810e-02	4.180270e-03	6	false	GAMG	2.051940e-01	1.840390e-03	4	true
229           	smoothSolver	1.216780e-03	1.041270e-04	11	4.305440e-02	4.289910e-03	6	false	GAMG	1.970010e-01	1.674410e-03	5	true
230           	smoothSolver	1.213950e-03	1.039230e-04	11	3.964280e-02	3.834370e-03	6	false	GAMG	2.092220e-01	1.980230e-03	4	true