# Solver information
# Time        	U_solver      	Ux_initial    	Ux_final      	Ux_iters      	Uy_initial    	Uy_final      	Uy_iters      	U_converged   	p_solver      	p_initial     	p_final       	p_iters       	p_converged   
1             	smoothSolver	0.000000e+00	0.000000e+00	0	0.000000e+00	0.000000e+00	0	false	GAMG	9.999910e-01	5.546020e-03	4	true
2             	smoothSolver	1.214880e-02	8.222120e-04	3	6.826130e-01	3.329330e-02	1	false	GAMG	1.000000e+00	8.097150e-03	11	true
3             	smoothSolver	1.630390e-03	9.626730e-05	2	5.464960e-01	2.699600e-02	2	false	GAMG	2.230580e-01	2.072290e-03	10	true
4             	smoothSolver	1.419390e-03	7.597460e-05	2	5.949590e-01	2.493070e-02	2	false	GAMG	1.864870e-01	1.405020e-03	11	true
5             	smoothSolver	1.383050e-03	7.135140e-05	2	5.967880e-01	2.016050e-02	2	false	GAMG	2.199530e-01	1.907750e-03	10	true
6             	smoothSolver	1.328730e-03	6.923220e-05	2	5.047570e-01	1.411700e-02	2	false	GAMG	2.097750e-01	1.731950e-03	9	true
7             	smoothSolver	1.276860e-03	6.784600e-05	2	3.909420e-01	1.333890e-02	2	false	GAMG	1.505220e-01	1.383370e-03	6	true
8             	smoothSolver	1.249130e-03	6.580730e-05	2	3.562270e-01	1.293060e-02	2	false	GAMG	1.210690e-01	8.463410e-04	10	true
9             	smoothSolver	1.223840e-03	6.333690e-05	2	3.665240e-01	1.187470e-02	2	false	GAMG	1.112980e-01	9.296370e-04	10	true
10            	smoothSolver	1.195050e-03	6.127760e-05	2	3.867150e-01	8.899700e-03	2	false	GAMG	1.065380e-01	1.033900e-03	8	true
11            	smoothSolver	1.171660e-03	6.000860e-05	2	3.570770e-01	6.873020e-03	2	false	GAMG	9.913410e-02	7.247790e-04	6	true
12            	smoothSolver	1.150060e-03	5.934410e-05	2	3.073620e-01	6.480650e-03	2	false	GAMG	8.549270e-02	5.647600e-04	8	true
13            	smoothSolver	1.129840e-03	5.885160e-05	2	2.809860e-01	5.350040e-03	2	false	GAMG	7.470210e-02	4.334600e-04	8	true
14            	smoothSolver	1.110870e-03	5.816900e-05	2	2.769140e-01	2.011130e-02	1	false	GAMG	6.993180e-02	4.908150e-04	6	true
15            	smoothSolver	1.091580e-03	5.730550e-05	2	2.705530e-01	1.913400e-02	1	false	GAMG	6.429250e-02	5.946270e-04	7	true
16            	smoothSolver	1.072760e-03	5.636260e-05	2	2.594820e-01	2.452240e-02	1	false	GAMG	5.755810e-02	3.682250e-04	7	true
17            	smoothSolver	1.054920e-03	5.555830e-05	2	2.460910e-01	2.259170e-02	1	false	GAMG	5.081100e-02	4.002810e-04	6	true
18            	smoothSolver	1.037640e-03	5.492030e-05	2	2.317880e-01	1.860130e-02	1	false	GAMG	4.568650e-02	4.200730e-04	6	true
19            	smoothSolver	1.020990e-03	5.436470e-05	2	2.278890e-01	1.559700e-02	1	false	GAMG	4.247120e-02	3.931580e-04	6	true
20            	smoothSolver	1.004860e-03	5.377910e-05	2	2.145190e-01	1.188040e-02	1	false	GAMG	3.964370e-02	2.375710e-04	6	true
21            	smoothSolver	9.890440e-04	5.312730e-05	2	1.955170e-01	8.965930e-03	1	false	GAMG	3.647330e-02	3.455040e-04	5	true
22            	smoothSolver	9.736760e-04	5.244380e-05	2	1.849080e-01	1.001050e-02	1	false	GAMG	3.369670e-02	2.601260e-04	5	true
23            	smoothSolver	9.587660e-04	5.178940e-05	2	1.778800e-01	9.031940e-03	1	false	GAMG	3.170480e-02	2.625470e-04	5	true
24            	smoothSolver	9.442660e-04	5.119120e-05	2	1.691460e-01	7.788650e-03	1	false	GAMG	2.999870e-02	1.805210e-04	6	true
25            	smoothSolver	9.301840e-04	5.064860e-05	2	1.615160e-01	7.012940e-03	1	false	GAMG	2.843730e-02	1.815560e-04	6	true
26            	smoothSolver	9.164990e-04	5.011050e-05	2	1.560420e-01	8.232620e-03	1	false	GAMG	2.702940e-02	1.280630e-04	6	true
27            	smoothSolver	9.031460e-04	4.956290e-05	2	1.526000e-01	1.072030e-02	1	false	GAMG	2.593970e-02	1.876290e-04	5	true
28            	smoothSolver	8.901660e-04	4.900980e-05	2	1.493730e-01	1.271200e-02	1	false	GAMG	2.491550e-02	1.357550e-04	5	true
29            	smoothSolver	8.774820e-04	4.847100e-05	2	1.468090e-01	1.355140e-02	1	false	GAMG	2.379910e-02	2.261650e-04	4	true
30            	smoothSolver	8.651380e-04	4.795510e-05	2	1.435060e-01	1.359080e-02	1	false	GAMG	2.285500e-02	1.067760e-04	5	true
31            	smoothSolver	8.531230e-04	4.746130e-05	2	1.408230e-01	1.325750e-02	1	false	GAMG	2.201100e-02	1.337810e-04	5	true
32            	smoothSolver	8.413920e-04	4.698280e-05	2	1.387410e-01	1.267390e-02	1	false	GAMG	2.140330e-02	1.160390e-04	5	true
33            	smoothSolver	8.299590e-04	4.650680e-05	2	1.354030e-01	1.217680e-02	1	false	GAMG	2.085320e-02	9.341940e-05	5	true
34            	smoothSolver	8.188130e-04	4.603920e-05	2	1.309920e-01	1.177900e-02	1	false	GAMG	2.035610e-02	7.910110e-05	5	true
35            	smoothSolver	8.079380e-04	4.557860e-05	2	1.259530e-01	1.123180e-02	1	false	GAMG	1.981880e-02	1.547110e-04	4	true
36            	smoothSolver	7.973210e-04	4.512880e-05	2	1.220820e-01	1.060710e-02	1	false	GAMG	1.926740e-02	1.568810e-04	4	true
37            	smoothSolver	7.869400e-04	4.469100e-05	2	1.199580e-01	9.622440e-03	1	false	GAMG	1.877570e-02	1.667290e-04	4	true
38            	smoothSolver	7.768010e-04	4.426180e-05	2	1.179310e-01	8.825220e-03	1	false	GAMG	1.832390e-02	1.564540e-04	4	true
39            	smoothSolver	7.669000e-04	4.384140e-05	2	1.151530e-01	8.029550e-03	1	false	GAMG	1.794240e-02	1.452580e-04	4	true
40            	smoothSolver	7.572400e-04	4.342520e-05	2	1.121360e-01	7.341570e-03	1	false	GAMG	1.756560e-02	1.268070e-04	4	true
41            	smoothSolver	7.478360e-04	4.301930e-05	2	1.094470e-01	6.706420e-03	1	false	GAMG	1.715610e-02	1.022420e-04	4	true
42            	smoothSolver	7.386500e-04	4.262400e-05	2	1.067860e-01	6.312890e-03	1	false	GAMG	1.674910e-02	9.212190e-05	4	true
43            	smoothSolver	7.296760e-04	4.223680e-05	2	1.043900e-01	5.889670e-03	1	false	GAMG	1.640750e-02	9.353490e-05	4	true
44            	smoothSolver	7.208890e-04	4.185660e-05	2	1.023380e-01	5.440660e-03	1	false	GAMG	1.608810e-02	9.857020e-05	4	true
45            	smoothSolver	7.122860e-04	4.148220e-05	2	1.002420e-01	5.182120e-03	1	false	GAMG	1.577180e-02	9.545600e-05	4	true
46            	smoothSolver	7.038610e-04	4.111280e-05	2	9.786780e-02	5.003660e-03	1	false	GAMG	1.546530e-02	8.320820e-05	4	true
47            	smoothSolver	6.956110e-04	4.074900e-05	2	9.570640e-02	4.774500e-03	1	false	GAMG	1.516690e-02	6.945210e-05	4	true
48            	smoothSolver	6.875400e-04	4.039400e-05	2	9.379130e-02	4.520280e-03	1	false	GAMG	1.486790e-02	6.493940e-05	4	true
49            	smoothSolver	6.796650e-04	4.004580e-05	2	9.173790e-02	4.283270e-03	1	false	GAMG	1.454830e-02	6.826400e-05	4	true
50            	smoothSolver	6.719890e-04	3.970360e-05	2	8.994090e-02	4.106850e-03	1	false	GAMG	1.421950e-02	7.411200e-05	4	true
51            	smoothSolver	6.645030e-04	3.937250e-05	2	8.825200e-02	4.060500e-03	1	false	GAMG	1.386870e-02	7.221020e-05	4	true
52            	smoothSolver	6.571870e-04	3.904840e-05	2	8.678210e-02	4.028000e-03	1	false	GAMG	1.354300e-02	6.460570e-05	4	true
53            	smoothSolver	6.500240e-04	3.872950e-05	2	8.516140e-02	3.981730e-03	1	false	GAMG	1.324840e-02	5.769680e-05	4	true
54            	smoothSolver	6.430030e-04	3.841590e-05	2	8.363610e-02	3.931600e-03	1	false	GAMG	1.293620e-02	5.511030e-05	4	true
55            	smoothSolver	6.361210e-04	3.810760e-05	2	8.200570e-02	3.991640e-03	1	false	GAMG	1.263230e-02	5.515090e-05	4	true
56            	smoothSolver	6.293750e-04	3.780470e-05	2	8.049050e-02	4.068920e-03	1	false	GAMG	1.232830e-02	5.541640e-05	4	true
57            	smoothSolver	6.227620e-04	3.750690e-05	2	7.906950e-02	4.151130e-03	1	false	GAMG	1.200880e-02	5.383140e-05	4	true
58            	smoothSolver	6.162770e-04	3.721380e-05	2	7.763780e-02	4.231470e-03	1	false	GAMG	1.168820e-02	5.056520e-05	4	true
59            	smoothSolver	6.099170e-04	3.692550e-05	2	7.638340e-02	4.293470e-03	1	false	GAMG	1.140900e-02	4.814990e-05	4	true
60            	smoothSolver	6.036810e-04	3.664200e-05	2	7.516350e-02	4.338310e-03	1	false	GAMG	1.115000e-02	4.747540e-05	4	true
61            	smoothSolver	5.975630e-04	3.636460e-05	2	7.393330e-02	4.366130e-03	1	false	GAMG	1.087650e-02	4.767120e-05	4	true
62            	smoothSolver	5.915670e-04	3.609230e-05	2	7.278590e-02	4.376880e-03	1	false	GAMG	1.061400e-02	4.774870e-05	4	true
63            	smoothSolver	5.856940e-04	3.582450e-05	2	7.158050e-02	4.370390e-03	1	false	GAMG	1.035430e-02	4.720060e-05	4	true
64            	smoothSolver	5.799780e-04	3.556110e-05	2	7.049610e-02	4.344940e-03	1	false	GAMG	1.009100e-02	4.619220e-05	4	true
65            	smoothSolver	5.744000e-04	3.530190e-05	2	6.942860e-02	4.297380e-03	1	false	GAMG	9.844340e-03	4.531100e-05	4	true
66            	smoothSolver	5.689350e-04	3.505070e-05	2	6.829770e-02	4.233590e-03	1	false	GAMG	9.604990e-03	4.506000e-05	4	true
67            	smoothSolver	5.635820e-04	3.480510e-05	2	6.705180e-02	4.147640e-03	1	false	GAMG	9.381260e-03	4.495660e-05	4	true
68            	smoothSolver	5.583270e-04	3.456350e-05	2	6.586850e-02	4.042970e-03	1	false	GAMG	9.158960e-03	4.472900e-05	4	true
69            	smoothSolver	5.531690e-04	3.432580e-05	2	6.466850e-02	3.923710e-03	1	false	GAMG	8.943270e-03	4.419200e-05	4	true
70            	smoothSolver	5.481040e-04	3.409180e-05	2	6.359240e-02	3.792100e-03	1	false	GAMG	8.747490e-03	4.328720e-05	4	true
71            	smoothSolver	5.431320e-04	3.386150e-05	2	6.253470e-02	3.649920e-03	1	false	GAMG	8.562560e-03	4.242430e-05	4	true
72            	smoothSolver	5.382480e-04	3.363480e-05	2	6.148300e-02	3.499140e-03	1	false	GAMG	8.389860e-03	4.164750e-05	4	true
73            	smoothSolver	5.334520e-04	3.341170e-05	2	6.038520e-02	3.343430e-03	1	false	GAMG	8.219200e-03	4.093170e-05	4	true
74            	smoothSolver	5.287410e-04	3.319210e-05	2	5.934250e-02	3.243900e-03	1	false	GAMG	8.050880e-03	4.014800e-05	4	true
75            	smoothSolver	5.241130e-04	3.297580e-05	2	5.832870e-02	3.153630e-03	1	false	GAMG	7.886160e-03	3.926130e-05	4	true
76            	smoothSolver	5.195660e-04	3.276290e-05	2	5.728070e-02	3.059410e-03	1	false	GAMG	7.720290e-03	3.829270e-05	4	true
77            	smoothSolver	5.150980e-04	3.255330e-05	2	5.630700e-02	2.964930e-03	1	false	GAMG	7.556420e-03	3.733110e-05	4	true
78            	smoothSolver	5.107080e-04	3.234680e-05	2	5.534290e-02	2.917040e-03	1	false	GAMG	7.397120e-03	3.640400e-05	4	true
79            	smoothSolver	5.063930e-04	3.214350e-05	2	5.433940e-02	2.868740e-03	1	false	GAMG	7.238010e-03	3.551470e-05	4	true
80            	smoothSolver	5.021530e-04	3.194320e-05	2	5.333180e-02	2.817010e-03	1	false	GAMG	7.083220e-03	3.462630e-05	4	true
81            	smoothSolver	4.979840e-04	3.174580e-05	2	5.231290e-02	2.762910e-03	1	false	GAMG	6.929240e-03	3.374650e-05	4	true
82            	smoothSolver	4.938850e-04	3.155140e-05	2	5.131770e-02	2.707300e-03	1	false	GAMG	6.785800e-03	3.287540e-05	4	true
83            	smoothSolver	4.898550e-04	3.135980e-05	2	5.037400e-02	2.651040e-03	1	false	GAMG	6.648470e-03	3.201730e-05	4	true
84            	smoothSolver	4.858920e-04	3.117110e-05	2	4.946270e-02	2.594830e-03	1	false	GAMG	6.512360e-03	3.118910e-05	4	true
85            	smoothSolver	4.819950e-04	3.098500e-05	2	4.854860e-02	2.539110e-03	1	false	GAMG	6.378280e-03	3.040750e-05	4	true
86            	smoothSolver	4.781620e-04	3.080170e-05	2	4.767350e-02	2.484640e-03	1	false	GAMG	6.248150e-03	2.965990e-05	4	true
87            	smoothSolver	4.743910e-04	3.062100e-05	2	4.682240e-02	2.431830e-03	1	false	GAMG	6.119470e-03	2.893890e-05	4	true
88            	smoothSolver	4.706820e-04	3.044280e-05	2	4.599720e-02	2.381180e-03	1	false	GAMG	5.992560e-03	2.823880e-05	4	true
89            	smoothSolver	4.670320e-04	3.026720e-05	2	4.520250e-02	2.333840e-03	1	false	GAMG	5.875080e-03	2.755560e-05	4	true
90            	smoothSolver	4.634410e-04	3.009410e-05	2	4.442180e-02	2.289300e-03	1	false	GAMG	5.760440e-03	2.690280e-05	4	true
91            	smoothSolver	4.599060e-04	2.992330e-05	2	4.366450e-02	2.247520e-03	1	false	GAMG	5.648210e-03	2.628830e-05	4	true
92            	smoothSolver	4.564280e-04	2.975500e-05	2	4.293550e-02	2.208650e-03	1	false	GAMG	5.537160e-03	2.569160e-05	4	true
93            	smoothSolver	4.530040e-04	2.958900e-05	2	4.223580e-02	2.172710e-03	1	false	GAMG	5.427010e-03	2.512220e-05	4	true
94            	smoothSolver	4.496330e-04	2.942520e-05	2	4.156000e-02	2.140850e-03	1	false	GAMG	5.317620e-03	2.457600e-05	4	true
95            	smoothSolver	4.463140e-04	2.926370e-05	2	4.091060e-02	2.113570e-03	1	false	GAMG	5.212490e-03	2.405010e-05	4	true
96            	smoothSolver	4.430470e-04	2.910440e-05	2	4.029430e-02	2.087810e-03	1	false	GAMG	5.110680e-03	2.354980e-05	4	true
97            	smoothSolver	4.398290e-04	2.894720e-05	2	3.970510e-02	2.063350e-03	1	false	GAMG	5.014920e-03	2.307420e-05	4	true
98            	smoothSolver	4.366600e-04	2.879220e-05	2	3.913160e-02	2.040090e-03	1	false	GAMG	4.926480e-03	2.262440e-05	4	true
99            	smoothSolver	4.335380e-04	2.863940e-05	2	3.859380e-02	2.017920e-03	1	false	GAMG	4.841230e-03	2.219690e-05	4	true
100           	smoothSolver	4.304630e-04	2.848860e-05	2	3.810080e-02	2.000110e-03	1	false	GAMG	4.757640e-03	2.178730e-05	4	true
101           	smoothSolver	4.274340e-04	2.833980e-05	2	3.763790e-02	1.984050e-03	1	false	GAMG	4.675960e-03	2.139810e-05	4	true
102           	smoothSolver	4.244490e-04	2.819300e-05	2	3.719080e-02	1.969570e-03	1	false	GAMG	4.596420e-03	2.102630e-05	4	true
103           	smoothSolver	4.215080e-04	2.804810e-05	2	3.677180e-02	1.956410e-03	1	false	GAMG	4.519350e-03	2.067110e-05	4	true
104           	smoothSolver	4.186100e-04	2.790500e-05	2	3.636830e-02	1.944380e-03	1	false	GAMG	4.445740e-03	2.033280e-05	4	true
105           	smoothSolver	4.157530e-04	2.776380e-05	2	3.601900e-02	1.933290e-03	1	false	GAMG	4.373140e-03	2.000810e-05	4	true
106           	smoothSolver	4.129370e-04	2.762430e-05	2	3.568960e-02	1.922950e-03	1	false	GAMG	4.302230e-03	1.969680e-05	4	true
107           	smoothSolver	4.101610e-04	2.748650e-05	2	3.537230e-02	1.913210e-03	1	false	GAMG	4.233430e-03	1.939870e-05	4	true
108           	smoothSolver	4.074250e-04	2.735050e-05	2	3.506490e-02	1.903920e-03	1	false	GAMG	4.167120e-03	1.911610e-05	4	true
109           	smoothSolver	4.047260e-04	2.721620e-05	2	3.476100e-02	1.894910e-03	1	false	GAMG	4.104990e-03	1.884710e-05	4	true
110           	smoothSolver	4.020660e-04	2.708350e-05	2	3.446120e-02	1.886340e-03	1	false	GAMG	4.044290e-03	1.859350e-05	4	true
111           	smoothSolver	3.994420e-04	2.695240e-05	2	3.417110e-02	1.878200e-03	1	false	GAMG	3.984960e-03	1.835090e-05	4	true
112           	smoothSolver	3.968530e-04	2.682280e-05	2	3.389470e-02	1.873560e-03	1	false	GAMG	3.927960e-03	1.811640e-05	4	true
113           	smoothSolver	3.943000e-04	2.669480e-05	2	3.362170e-02	1.870270e-03	1	false	GAMG	3.872380e-03	1.789080e-05	4	true
114           	smoothSolver	3.917820e-04	2.656840e-05	2	3.335140e-02	1.866450e-03	1	false	GAMG	3.817450e-03	1.767150e-05	4	true
115           	smoothSolver	3.892970e-04	2.644340e-05	2	3.308530e-02	1.862060e-03	1	false	GAMG	3.764000e-03	1.745620e-05	4	true
116           	smoothSolver	3.868460e-04	2.631990e-05	2	3.282040e-02	1.857080e-03	1	false	GAMG	3.713330e-03	1.724740e-05	4	true
117           	smoothSolver	3.844260e-04	2.619780e-05	2	3.255860e-02	1.851470e-03	1	false	GAMG	3.664340e-03	1.704660e-05	4	true
118           	smoothSolver	3.820390e-04	2.607710e-05	2	3.229910e-02	1.845220e-03	1	false	GAMG	3.617060e-03	1.685280e-05	4	true
119           	smoothSolver	3.796820e-04	2.595770e-05	2	3.204200e-02	1.838330e-03	1	false	GAMG	3.570640e-03	1.666270e-05	4	true
120           	smoothSolver	3.773560e-04	2.583980e-05	2	3.178810e-02	1.830820e-03	1	false	GAMG	3.525120e-03	1.648340e-05	4	true
121           	smoothSolver	3.750600e-04	2.572310e-05	2	3.154080e-02	1.822740e-03	1	false	GAMG	3.480490e-03	1.631140e-05	4	true
122           	smoothSolver	3.727930e-04	2.560770e-05	2	3.129690e-02	1.814130e-03	1	false	GAMG	3.437510e-03	1.614580e-05	4	true
123           	smoothSolver	3.705550e-04	2.549360e-05	2	3.105570e-02	1.805030e-03	1	false	GAMG	3.395840e-03	1.598660e-05	4	true
124           	smoothSolver	3.683450e-04	2.538080e-05	2	3.081710e-02	1.795490e-03	1	false	GAMG	3.355350e-03	1.583250e-05	4	true
125           	smoothSolver	3.661620e-04	2.526910e-05	2	3.058030e-02	1.785590e-03	1	false	GAMG	3.315630e-03	1.568690e-05	4	true
126           	smoothSolver	3.640060e-04	2.515870e-05	2	3.034850e-02	1.775360e-03	1	false	GAMG	3.276530e-03	1.554930e-05	4	true
127           	smoothSolver	3.618770e-04	2.504940e-05	2	3.014280e-02	1.764800e-03	1	false	GAMG	3.237810e-03	1.542070e-05	4	true
128           	smoothSolver	3.597740e-04	2.494130e-05	2	2.993880e-02	1.754030e-03	1	false	GAMG	3.199610e-03	1.529540e-05	4	true
129           	smoothSolver	3.576960e-04	2.483440e-05	2	2.974130e-02	1.743090e-03	1	false	GAMG	3.162010e-03	1.517500e-05	4	true
130           	smoothSolver	3.556430e-04	2.472850e-05	2	2.954510e-02	1.732030e-03	1	false	GAMG	3.125030e-03	1.505840e-05	4	true
131           	smoothSolver	3.536140e-04	2.462380e-05	2	2.935110e-02	1.720890e-03	1	false	GAMG	3.088920e-03	1.494490e-05	4	true
132           	smoothSolver	3.516100e-04	2.452010e-05	2	2.915910e-02	1.709700e-03	1	false	GAMG	3.053420e-03	1.483400e-05	4	true
133           	smoothSolver	3.496290e-04	2.441740e-05	2	2.896840e-02	1.699030e-03	1	false	GAMG	3.018450e-03	1.472910e-05	4	true
134           	smoothSolver	3.476710e-04	2.431580e-05	2	2.878680e-02	1.689250e-03	1	false	GAMG	2.984090e-03	1.462910e-05	4	true
135           	smoothSolver	3.457360e-04	2.421520e-05	2	2.861160e-02	1.679590e-03	1	false	GAMG	2.950190e-03	1.453430e-05	4	true
136           	smoothSolver	3.438230e-04	2.411570e-05	2	2.844030e-02	1.670080e-03	1	false	GAMG	2.916850e-03	1.444270e-05	4	true
137           	smoothSolver	3.419320e-04	2.401700e-05	2	2.827140e-02	1.660760e-03	1	false	GAMG	2.883970e-03	1.435340e-05	4	true
138           	smoothSolver	3.400620e-04	2.391940e-05	2	2.810420e-02	1.651610e-03	1	false	GAMG	2.851580e-03	1.426690e-05	4	true
139           	smoothSolver	3.382130e-04	2.382270e-05	2	2.793830e-02	1.643020e-03	1	false	GAMG	2.819640e-03	1.418290e-05	4	true
140           	smoothSolver	3.363850e-04	2.372690e-05	2	2.777350e-02	1.634740e-03	1	false	GAMG	2.788140e-03	1.410040e-05	4	true
141           	smoothSolver	3.345770e-04	2.363210e-05	2	2.760950e-02	1.626610e-03	1	false	GAMG	2.757130e-03	1.401840e-05	4	true
142           	smoothSolver	3.327890e-04	2.353810e-05	2	2.744740e-02	1.618630e-03	1	false	GAMG	2.726610e-03	1.393740e-05	4	true
143           	smoothSolver	3.310200e-04	2.344500e-05	2	2.728770e-02	1.610830e-03	1	false	GAMG	2.696520e-03	2.690430e-05	3	true
144           	smoothSolver	3.292700e-04	2.335280e-05	2	2.713280e-02	1.604760e-03	1	false	GAMG	2.668100e-03	1.387250e-05	4	true
145           	smoothSolver	3.275400e-04	2.326150e-05	2	2.697540e-02	1.599610e-03	1	false	GAMG	2.637010e-03	1.425170e-05	4	true
146           	smoothSolver	3.258280e-04	2.317100e-05	2	2.681390e-02	1.591050e-03	1	false	GAMG	2.608920e-03	1.403300e-05	4	true
147           	smoothSolver	3.241330e-04	2.308130e-05	2	2.665720e-02	1.584630e-03	1	false	GAMG	2.580540e-03	1.390000e-05	4	true
148           	smoothSolver	3.224570e-04	2.299240e-05	2	2.650730e-02	1.578970e-03	1	false	GAMG	2.552640e-03	2.544470e-05	3	true
149           	smoothSolver	3.207980e-04	2.290430e-05	2	2.636060e-02	1.574230e-03	1	false	GAMG	2.525930e-03	1.375690e-05	4	true
150           	smoothSolver	3.191570e-04	2.281710e-05	2	2.621360e-02	1.569240e-03	1	false	GAMG	2.497320e-03	1.395240e-05	4	true
151           	smoothSolver	3.175320e-04	2.273060e-05	2	2.606170e-02	1.560890e-03	1	false	GAMG	2.471330e-03	1.366300e-05	4	true
152           	smoothSolver	3.159240e-04	2.264500e-05	2	2.591460e-02	1.554590e-03	1	false	GAMG	2.444980e-03	2.435600e-05	3	true
153           	smoothSolver	3.143320e-04	2.256010e-05	2	2.577010e-02	1.550590e-03	1	false	GAMG	2.419420e-03	1.361780e-05	4	true
154           	smoothSolver	3.127560e-04	2.247610e-05	2	2.562800e-02	1.546230e-03	1	false	GAMG	2.393440e-03	1.380930e-05	4	true
155           	smoothSolver	3.111960e-04	2.239270e-05	2	2.548020e-02	1.538810e-03	1	false	GAMG	2.369560e-03	1.349640e-05	4	true
156           	smoothSolver	3.096510e-04	2.231000e-05	2	2.533610e-02	1.532890e-03	1	false	GAMG	2.345170e-03	2.337220e-05	3	true
157           	smoothSolver	3.081220e-04	2.222790e-05	2	2.519360e-02	1.529040e-03	1	false	GAMG	2.323200e-03	1.344830e-05	4	true
158           	smoothSolver	3.066070e-04	2.214670e-05	2	2.505530e-02	1.524610e-03	1	false	GAMG	2.301090e-03	1.358700e-05	4	true
159           	smoothSolver	3.051080e-04	2.206610e-05	2	2.491130e-02	1.517700e-03	1	false	GAMG	2.280380e-03	1.330500e-05	4	true
160           	smoothSolver	3.036220e-04	2.198610e-05	2	2.477400e-02	1.512240e-03	1	false	GAMG	2.259760e-03	2.252430e-05	3	true
161           	smoothSolver	3.021510e-04	2.190670e-05	2	2.463840e-02	1.508850e-03	1	false	GAMG	2.239710e-03	1.341870e-05	4	true
162           	smoothSolver	3.006940e-04	2.182810e-05	2	2.450630e-02	1.504630e-03	1	false	GAMG	2.220420e-03	1.345750e-05	4	true
163           	smoothSolver	2.992510e-04	2.175010e-05	2	2.436990e-02	1.498110e-03	1	false	GAMG	2.203540e-03	1.317560e-05	4	true
164           	smoothSolver	2.978210e-04	2.167270e-05	2	2.423900e-02	1.492840e-03	1	false	GAMG	2.186410e-03	2.181500e-05	3	true
165           	smoothSolver	2.964030e-04	2.159570e-05	2	2.411340e-02	1.489700e-03	1	false	GAMG	2.169050e-03	1.342820e-05	4	true
166           	smoothSolver	2.949980e-04	2.151950e-05	2	2.399550e-02	1.485620e-03	1	false	GAMG	2.152880e-03	1.336810e-05	4	true
167           	smoothSolver	2.936040e-04	2.144360e-05	2	2.386980e-02	1.479500e-03	1	false	GAMG	2.137230e-03	1.309640e-05	4	true
168           	smoothSolver	2.922240e-04	2.136840e-05	2	2.374730e-02	1.474520e-03	1	false	GAMG	2.120990e-03	1.280840e-05	4	true
169           	smoothSolver	2.908550e-04	2.129370e-05	2	2.362610e-02	1.470110e-03	1	false	GAMG	2.105140e-03	2.101190e-05	3	true
170           	smoothSolver	2.894990e-04	2.121950e-05	2	2.350370e-02	1.467160e-03	1	false	GAMG	2.088900e-03	1.340580e-05	4	true
171           	smoothSolver	2.881550e-04	2.114610e-05	2	2.338840e-02	1.463290e-03	1	false	GAMG	2.073990e-03	1.312000e-05	4	true
172           	smoothSolver	2.868230e-04	2.107310e-05	2	2.326530e-02	1.457530e-03	1	false	GAMG	2.059700e-03	1.301440e-05	4	true
173           	smoothSolver	2.855030e-04	2.100060e-05	2	2.314590e-02	1.452970e-03	1	false	GAMG	2.045120e-03	1.274820e-05	4	true
174           	smoothSolver	2.841940e-04	2.092870e-05	2	2.302770e-02	1.448940e-03	1	false	GAMG	2.030830e-03	1.256650e-05	4	true
175           	smoothSolver	2.828960e-04	2.085730e-05	2	2.290950e-02	1.444850e-03	1	false	GAMG	2.016660e-03	1.240880e-05	4	true
176           	smoothSolver	2.816100e-04	2.078640e-05	2	2.279130e-02	1.440610e-03	1	false	GAMG	2.002580e-03	1.220700e-05	4	true
177           	smoothSolver	2.803350e-04	2.071610e-05	2	2.267380e-02	1.436440e-03	1	false	GAMG	1.988630e-03	1.218020e-05	4	true
178           	smoothSolver	2.790710e-04	2.064620e-05	2	2.255720e-02	1.432520e-03	1	false	GAMG	1.975100e-03	1.221920e-05	4	true
179           	smoothSolver	2.778170e-04	2.057680e-05	2	2.244180e-02	1.428920e-03	1	false	GAMG	1.961720e-03	1.228200e-05	4	true
180           	smoothSolver	2.765740e-04	2.050800e-05	2	2.232730e-02	1.425440e-03	1	false	GAMG	1.948860e-03	1.232910e-05	4	true
181           	smoothSolver	2.753410e-04	2.043960e-05	2	2.221310e-02	1.421900e-03	1	false	GAMG	1.936140e-03	1.235480e-05	4	true
182           	smoothSolver	2.741180e-04	2.037160e-05	2	2.209890e-02	1.418250e-03	1	false	GAMG	1.923720e-03	1.236830e-05	4	true
183           	smoothSolver	2.729060e-04	2.030420e-05	2	2.198580e-02	1.414540e-03	1	false	GAMG	1.911550e-03	1.239020e-05	4	true
184           	smoothSolver	2.717030e-04	2.023720e-05	2	2.187430e-02	1.410830e-03	1	false	GAMG	1.899500e-03	1.242180e-05	4	true
185           	smoothSolver	2.705110e-04	2.017060e-05	2	2.176340e-02	1.407260e-03	1	false	GAMG	1.887830e-03	1.245620e-05	4	true
186           	smoothSolver	2.693270e-04	2.010450e-05	2	2.165380e-02	1.403720e-03	1	false	GAMG	1.876410e-03	1.248990e-05	4	true
187           	smoothSolver	2.681540e-04	2.003890e-05	2	2.154970e-02	1.400200e-03	1	false	GAMG	1.865120e-03	1.252210e-05	4	true
188           	smoothSolver	2.669890e-04	1.997370e-05	2	2.144690e-02	1.396700e-03	1	false	GAMG	1.854130e-03	1.255370e-05	4	true
189           	smoothSolver	2.658340e-04	1.990890e-05	2	2.134470e-02	1.393210e-03	1	false	GAMG	1.843480e-03	1.258970e-05	4	true
190           	smoothSolver	2.646880e-04	1.984450e-05	2	2.124310e-02	1.389820e-03	1	false	GAMG	1.833050e-03	1.263000e-05	4	true
191           	smoothSolver	2.635510e-04	1.978050e-05	2	2.114220e-02	1.386530e-03	1	false	GAMG	1.822710e-03	1.267620e-05	4	true
192           	smoothSolver	2.624230e-04	1.971700e-05	2	2.104210e-02	1.383290e-03	1	false	GAMG	1.812460e-03	1.272610e-05	4	true
193           	smoothSolver	2.613040e-04	1.965390e-05	2	2.094260e-02	1.380080e-03	1	false	GAMG	1.802410e-03	1.277690e-05	4	true
194           	smoothSolver	2.601930e-04	1.959110e-05	2	2.084360e-02	1.376890e-03	1	false	GAMG	1.792590e-03	1.282880e-05	4	true
195           	smoothSolver	2.590910e-04	1.952880e-05	2	2.074510e-02	1.373820e-03	1	false	GAMG	1.783110e-03	1.288290e-05	4	true
196           	smoothSolver	2.579970e-04	1.946680e-05	2	2.064760e-02	1.370830e-03	1	false	GAMG	1.773830e-03	1.294180e-05	4	true
197           	smoothSolver	2.569110e-04	1.940530e-05	2	2.055240e-02	1.367860e-03	1	false	GAMG	1.765000e-03	1.300460e-05	4	true
198           	smoothSolver	2.558340e-04	1.934410e-05	2	2.045810e-02	1.364920e-03	1	false	GAMG	1.756250e-03	1.307010e-05	4	true
199           	smoothSolver	2.547640e-04	1.928330e-05	2	2.036410e-02	1.362010e-03	1	false	GAMG	1.747550e-03	1.313670e-05	4	true
200           	smoothSolver	2.537030e-04	1.922280e-05	2	2.027090e-02	1.359250e-03	1	false	GAMG	1.739110e-03	1.320380e-05	4	true
201           	smoothSolver	2.526490e-04	1.916280e-05	2	2.017980e-02	1.356520e-03	1	false	GAMG	1.730860e-03	1.327190e-05	4	true
202           	smoothSolver	2.516030e-04	1.910300e-05	2	2.009010e-02	1.353810e-03	1	false	GAMG	1.723150e-03	1.334100e-05	4	true
203           	smoothSolver	2.505640e-04	1.904370e-05	2	2.000090e-02	1.351140e-03	1	false	GAMG	1.715710e-03	1.341100e-05	4	true
204           	smoothSolver	2.495340e-04	1.898470e-05	2	1.991210e-02	1.348630e-03	1	false	GAMG	1.708330e-03	1.348190e-05	4	true
205           	smoothSolver	2.485100e-04	1.892600e-05	2	1.982400e-02	1.346130e-03	1	false	GAMG	1.701190e-03	1.355260e-05	4	true
206           	smoothSolver	2.474940e-04	1.886770e-05	2	1.973690e-02	1.343630e-03	1	false	GAMG	1.694230e-03	1.362300e-05	4	true
207           	smoothSolver	2.464850e-04	1.880970e-05	2	1.965080e-02	1.341140e-03	1	false	GAMG	1.687330e-03	1.369390e-05	4	true
208           	smoothSolver	2.454830e-04	1.875210e-05	2	1.956550e-02	1.338810e-03	1	false	GAMG	1.680490e-03	1.376490e-05	4	true
209           	smoothSolver	2.444890e-04	1.869480e-05	2	1.948120e-02	1.336510e-03	1	false	GAMG	1.673730e-03	1.383930e-05	4	true
210           	smoothSolver	2.435010e-04	1.863780e-05	2	1.939860e-02	1.334220e-03	1	false	GAMG	1.667050e-03	1.391440e-05	4	true
211           	smoothSolver	2.425200e-04	1.858110e-05	2	1.931690e-02	1.331940e-03	1	false	GAMG	1.660410e-03	1.399080e-05	4	true
212           	smoothSolver	2.415460e-04	1.852470e-05	2	1.923590e-02	1.329680e-03	1	false	GAMG	1.653810e-03	1.406770e-05	4	true
213           	smoothSolver	2.405790e-04	1.846870e-05	2	1.915600e-02	1.327440e-03	1	false	GAMG	1.647260e-03	1.414500e-05	4	true
214           	smoothSolver	2.396180e-04	1.841300e-05	2	1.907650e-02	1.325210e-03	1	false	GAMG	1.640760e-03	1.422240e-05	4	true
215           	smoothSolver	2.386640e-04	1.835760e-05	2	1.899790e-02	1.323040e-03	1	false	GAMG	1.634300e-03	1.429990e-05	4	true
216           	smoothSolver	2.377170e-04	1.830250e-05	2	1.892090e-02	1.320960e-03	1	false	GAMG	1.627900e-03	1.437730e-05	4	true
217           	smoothSolver	2.367750e-04	1.824760e-05	2	1.884540e-02	1.318870e-03	1	false	GAMG	1.621560e-03	1.445460e-05	4	true
218           	smoothSolver	2.358400e-04	1.819310e-05	2	1.877110e-02	1.316790e-03	1	false	GAMG	1.615290e-03	1.453290e-05	4	true
219           	smoothSolver	2.349120e-04	1.813890e-05	2	1.869740e-02	1.314710e-03	1	false	GAMG	1.609880e-03	1.461190e-05	4	true
220           	smoothSolver	2.339890e-04	1.808500e-05	2	1.862400e-02	1.312650e-03	1	false	GAMG	1.604640e-03	1.469130e-05	4	true
221           	smoothSolver	2.330730e-04	1.803130e-05	2	1.855110e-02	1.310600e-03	1	false	GAMG	1.599450e-03	1.477060e-05	4	true
222           	smoothSolver	2.321630e-04	1.797800e-05	2	1.847870e-02	1.308560e-03	1	false	GAMG	1.594700e-03	1.484970e-05	4	true
223           	smoothSolver	2.312580e-04	1.792490e-05	2	1.840690e-02	1.306540e-03	1	false	GAMG	1.590210e-03	1.492860e-05	4	true
224           	smoothSolver	2.303600e-04	1.787210e-05	2	1.833590e-02	1.304530e-03	1	false	GAMG	1.585740e-03	1.500860e-05	4	true
225           	smoothSolver	2.294670e-04	1.781960e-05	2	1.826530e-02	1.302540e-03	1	false	GAMG	1.581310e-03	1.508830e-05	4	true
226           	smoothSolver	2.285800e-04	1.776730e-05	2	1.819510e-02	1.300560e-03	1	false	GAMG	1.576910e-03	1.516790e-05	4	true
227           	smoothSolver	2.276990e-04	1.771530e-05	2	1.812520e-02	1.298590e-03	1	false	GAMG	1.572550e-03	1.524730e-05	4	true
228           	smoothSolver	2.268230e-04	1.766360e-05	2	1.805570e-02	1.296640e-03	1	false	GAMG	1.568260e-03	1.532680e-05	4	true
229           	smoothSolver	2.259530e-04	1.761210e-05	2	1.798660e-02	1.294700e-03	1	false	GAMG	1.564010e-03	1.540830e-05	4	true
230           	smoothSolver	2.250890e-04	1.756090e-05	2	1.791760e-02	1.292740e-03	1	false	GAMG	1.559790e-03	1.548970e-05	4	true
231           	smoothSolver	2.242300e-04	1.751000e-05	2	1.784880e-02	1.290800e-03	1	false	GAMG	1.555600e-03	7.212350e-06	5	true
232           	smoothSolver	2.233760e-04	1.745930e-05	2	1.778050e-02	1.286840e-03	1	false	GAMG	1.549480e-03	1.443440e-05	4	true