# Solver information
# Time        	U_solver      	Ux_initial    	Ux_final      	Ux_iters      	Uy_initial    	Uy_final      	Uy_iters      	U_converged   	p_solver      	p_initial     	p_final       	p_iters       	p_converged   
1             	smoothSolver	0.000000e+00	0.000000e+00	0	0.000000e+00	0.000000e+00	0	false	GAMG	9.999940e-01	4.699490e-03	3	true
2             	smoothSolver	1.061940e-01	1.038320e-02	4	1.000000e+00	5.177180e-02	2	false	GAMG	1.000000e+00	8.840720e-03	3	true
3             	smoothSolver	3.808750e-02	3.581880e-03	3	5.566130e-01	3.403000e-02	2	false	GAMG	1.301210e-01	8.719130e-04	5	true
4             	smoothSolver	2.249130e-02	2.185710e-03	4	4.194710e-01	3.934300e-02	2	false	GAMG	1.075390e-01	8.528810e-04	4	true
5             	smoothSolver	1.621690e-02	1.204100e-03	5	3.951930e-01	2.390460e-02	3	false	GAMG	1.155010e-01	7.240510e-04	5	true
6             	smoothSolver	1.272870e-02	1.069780e-03	5	4.047850e-01	3.582360e-02	3	false	GAMG	1.152010e-01	9.324890e-04	4	true
7             	smoothSolver	1.065440e-02	9.847300e-04	5	4.010030e-01	2.438180e-02	4	false	GAMG	1.125320e-01	9.277160e-04	4	true
8             	smoothSolver	9.228510e-03	9.214560e-04	5	3.719260e-01	2.511550e-02	4	false	GAMG	1.023310e-01	9.653070e-04	3	true
9             	smoothSolver	8.172870e-03	5.680150e-04	6	3.398830e-01	2.421280e-02	4	false	GAMG	9.605370e-02	6.253500e-04	4	true
10            	smoothSolver	7.383290e-03	5.408680e-04	6	3.150040e-01	2.313380e-02	4	false	GAMG	8.711140e-02	7.591550e-04	4	true
11            	smoothSolver	6.847020e-03	5.195060e-04	6	3.003740e-01	2.151520e-02	4	false	GAMG	8.410880e-02	8.065590e-04	4	true
12            	smoothSolver	6.579640e-03	5.029980e-04	6	2.924240e-01	1.974410e-02	4	false	GAMG	8.109090e-02	7.160060e-04	4	true
13            	smoothSolver	6.404850e-03	4.881240e-04	6	2.766490e-01	1.901500e-02	4	false	GAMG	7.907140e-02	6.110690e-04	4	true
14            	smoothSolver	6.251320e-03	4.746300e-04	6	2.441920e-01	1.729780e-02	4	false	GAMG	7.395570e-02	4.887290e-04	4	true
15            	smoothSolver	6.115530e-03	4.629040e-04	6	2.221390e-01	1.624060e-02	4	false	GAMG	7.141610e-02	6.590830e-04	3	true
16            	smoothSolver	5.997470e-03	4.527100e-04	6	2.040550e-01	1.557400e-02	4	false	GAMG	6.972300e-02	4.122940e-04	4	true
17            	smoothSolver	5.891040e-03	4.441920e-04	6	1.896310e-01	1.521520e-02	4	false	GAMG	6.952760e-02	5.622630e-04	3	true
18            	smoothSolver	5.790760e-03	4.365330e-04	6	1.776660e-01	1.614110e-02	4	false	GAMG	6.810970e-02	6.775090e-04	3	true
19            	smoothSolver	5.694810e-03	4.292430e-04	6	1.648250e-01	1.486360e-02	4	false	GAMG	6.666270e-02	4.656380e-04	3	true
20            	smoothSolver	5.603980e-03	4.224890e-04	6	1.500420e-01	1.447120e-02	4	false	GAMG	6.369370e-02	6.221350e-04	3	true
21            	smoothSolver	5.520940e-03	4.164350e-04	6	1.400560e-01	9.291480e-03	5	false	GAMG	6.263420e-02	5.474840e-04	4	true
22            	smoothSolver	5.444820e-03	4.112820e-04	6	1.319130e-01	8.630320e-03	5	false	GAMG	6.175680e-02	3.447840e-04	3	true
23            	smoothSolver	5.373710e-03	4.062170e-04	6	1.273690e-01	8.456400e-03	5	false	GAMG	6.124200e-02	5.697800e-04	3	true
24            	smoothSolver	5.298580e-03	4.006980e-04	6	1.217630e-01	8.310790e-03	5	false	GAMG	6.051120e-02	6.025710e-04	4	true
25            	smoothSolver	5.226830e-03	3.956600e-04	6	1.173010e-01	8.138350e-03	5	false	GAMG	5.785000e-02	5.737960e-04	4	true
26            	smoothSolver	5.164890e-03	3.913400e-04	6	1.153260e-01	7.568160e-03	5	false	GAMG	5.820210e-02	5.265280e-04	4	true
27            	smoothSolver	5.099000e-03	3.867240e-04	6	1.098820e-01	7.292990e-03	5	false	GAMG	5.823780e-02	4.973440e-04	4	true
28            	smoothSolver	5.032170e-03	3.820160e-04	6	1.073370e-01	7.097130e-03	5	false	GAMG	5.647280e-02	5.096490e-04	3	true
29            	smoothSolver	4.967360e-03	3.775100e-04	6	1.039030e-01	7.070020e-03	5	false	GAMG	5.603930e-02	3.961360e-04	4	true
30            	smoothSolver	4.908170e-03	3.733820e-04	6	1.043060e-01	7.502310e-03	5	false	GAMG	5.662490e-02	3.746530e-04	4	true
31            	smoothSolver	4.851570e-03	3.694820e-04	6	1.025270e-01	7.241090e-03	5	false	GAMG	5.787210e-02	4.300730e-04	4	true
32            	smoothSolver	4.792620e-03	3.655170e-04	6	9.769800e-02	6.876640e-03	5	false	GAMG	5.803050e-02	4.682160e-04	4	true
33            	smoothSolver	4.735240e-03	3.616420e-04	6	9.875840e-02	7.074220e-03	5	false	GAMG	5.908480e-02	4.270610e-04	4	true
34            	smoothSolver	4.681230e-03	3.580410e-04	6	9.586340e-02	7.040530e-03	5	false	GAMG	5.825600e-02	3.799310e-04	4	true
35            	smoothSolver	4.625820e-03	3.545020e-04	6	9.537510e-02	6.639840e-03	5	false	GAMG	5.753790e-02	3.906700e-04	4	true
36            	smoothSolver	4.573650e-03	3.511430e-04	6	9.381860e-02	6.632280e-03	5	false	GAMG	5.736950e-02	4.116410e-04	4	true
37            	smoothSolver	4.519270e-03	3.475630e-04	6	9.333440e-02	6.716540e-03	5	false	GAMG	5.678020e-02	4.360340e-04	4	true
38            	smoothSolver	4.467360e-03	3.442070e-04	6	9.270200e-02	7.028310e-03	5	false	GAMG	5.855020e-02	5.436640e-04	4	true
39            	smoothSolver	4.415070e-03	3.409900e-04	6	9.150380e-02	6.591220e-03	5	false	GAMG	6.063680e-02	5.996580e-04	4	true
40            	smoothSolver	4.363950e-03	3.377690e-04	6	8.679600e-02	6.062440e-03	5	false	GAMG	6.020500e-02	5.681260e-04	4	true
41            	smoothSolver	4.312350e-03	3.345020e-04	6	8.700340e-02	6.175070e-03	5	false	GAMG	5.938410e-02	2.791050e-04	5	true
42            	smoothSolver	4.264050e-03	3.313920e-04	6	8.510920e-02	7.704970e-03	4	false	GAMG	6.357430e-02	3.729170e-04	4	true
43            	smoothSolver	4.216710e-03	3.283930e-04	6	8.505270e-02	5.514040e-03	5	false	GAMG	6.305760e-02	5.332010e-04	4	true
44            	smoothSolver	4.170090e-03	3.254920e-04	6	8.479990e-02	7.626790e-03	4	false	GAMG	6.421490e-02	6.140430e-04	4	true
45            	smoothSolver	4.121860e-03	3.224370e-04	6	8.319530e-02	7.749140e-03	4	false	GAMG	6.694500e-02	5.072410e-04	4	true
46            	smoothSolver	4.077590e-03	3.196380e-04	6	8.004980e-02	6.908830e-03	4	false	GAMG	6.560170e-02	5.527700e-04	4	true
47            	smoothSolver	4.034700e-03	3.169570e-04	6	8.165160e-02	7.097640e-03	4	false	GAMG	6.519600e-02	6.249580e-04	4	true
48            	smoothSolver	3.993350e-03	3.143810e-04	6	8.471870e-02	8.182280e-03	4	false	GAMG	7.172570e-02	7.081110e-04	4	true
49            	smoothSolver	3.951170e-03	3.117890e-04	6	8.272520e-02	7.784780e-03	4	false	GAMG	7.170270e-02	4.242960e-04	5	true
50            	smoothSolver	3.910030e-03	3.092070e-04	6	8.305100e-02	7.094550e-03	4	false	GAMG	7.372400e-02	3.914720e-04	5	true
51            	smoothSolver	3.870450e-03	3.067000e-04	6	8.158460e-02	6.006660e-03	4	false	GAMG	7.797920e-02	6.006710e-04	4	true
52            	smoothSolver	3.832580e-03	3.043950e-04	6	7.609760e-02	5.441880e-03	4	false	GAMG	7.934200e-02	7.350320e-04	4	true
53            	smoothSolver	3.796490e-03	3.021200e-04	6	7.620110e-02	5.352730e-03	4	false	GAMG	8.248110e-02	7.231610e-04	4	true
54            	smoothSolver	3.760660e-03	2.999430e-04	6	7.653700e-02	5.250000e-03	4	false	GAMG	8.186840e-02	5.912900e-04	4	true
55            	smoothSolver	3.725360e-03	2.976500e-04	6	7.583780e-02	5.469990e-03	4	false	GAMG	8.266150e-02	7.244900e-04	4	true
56            	smoothSolver	3.693020e-03	2.957140e-04	6	7.902930e-02	5.363490e-03	4	false	GAMG	8.742180e-02	6.536240e-04	4	true
57            	smoothSolver	3.662990e-03	2.939190e-04	6	7.208600e-02	4.823430e-03	4	false	GAMG	8.663740e-02	6.287690e-04	4	true
58            	smoothSolver	3.632230e-03	2.920350e-04	6	7.684960e-02	5.671140e-03	4	false	GAMG	9.301810e-02	5.371630e-04	4	true
59            	smoothSolver	3.602480e-03	2.901380e-04	6	7.642940e-02	5.107840e-03	4	false	GAMG	9.862140e-02	7.867130e-04	4	true
60            	smoothSolver	3.574970e-03	2.884430e-04	6	7.218850e-02	4.714340e-03	4	false	GAMG	9.515680e-02	8.637280e-04	4	true
61            	smoothSolver	3.546730e-03	2.867270e-04	6	7.955170e-02	4.907690e-03	4	false	GAMG	1.155980e-01	8.131810e-04	4	true
62            	smoothSolver	3.520970e-03	2.851080e-04	6	7.734900e-02	7.409900e-03	3	false	GAMG	1.000420e-01	5.437580e-04	4	true
63            	smoothSolver	3.494690e-03	2.835540e-04	6	7.186080e-02	4.585280e-03	4	false	GAMG	1.065170e-01	8.554590e-04	4	true
64            	smoothSolver	3.470380e-03	2.820490e-04	6	7.339860e-02	4.488460e-03	4	false	GAMG	1.119200e-01	5.646940e-04	4	true
65            	smoothSolver	3.447740e-03	2.807190e-04	6	7.308730e-02	4.805650e-03	4	false	GAMG	1.093220e-01	8.719550e-04	4	true
66            	smoothSolver	3.424940e-03	2.793970e-04	6	8.250680e-02	5.356750e-03	4	false	GAMG	1.348240e-01	1.138370e-03	4	true
67            	smoothSolver	3.403860e-03	2.781410e-04	6	8.891270e-02	5.560780e-03	4	false	GAMG	1.354680e-01	1.067780e-03	4	true
68            	smoothSolver	3.384490e-03	2.769890e-04	6	9.145290e-02	8.184270e-03	3	false	GAMG	1.255620e-01	8.760760e-04	4	true
69            	smoothSolver	3.365230e-03	2.758110e-04	6	9.015550e-02	8.369780e-03	3	false	GAMG	1.230430e-01	1.157180e-03	4	true
70            	smoothSolver	3.346170e-03	2.746710e-04	6	9.704100e-02	9.280560e-03	3	false	GAMG	1.346700e-01	8.463060e-04	4	true
71            	smoothSolver	3.330500e-03	2.737620e-04	6	9.013960e-02	8.422180e-03	3	false	GAMG	1.190100e-01	1.055470e-03	4	true
72            	smoothSolver	3.313590e-03	2.727130e-04	6	8.210600e-02	5.112660e-03	4	false	GAMG	1.150530e-01	8.629500e-04	4	true
73            	smoothSolver	3.297970e-03	2.717020e-04	6	8.590010e-02	5.102820e-03	4	false	GAMG	1.397250e-01	9.399280e-04	4	true
74            	smoothSolver	3.282760e-03	2.707390e-04	6	9.253720e-02	8.727950e-03	3	false	GAMG	1.307990e-01	1.209640e-03	4	true
75            	smoothSolver	3.268530e-03	2.699040e-04	6	9.346600e-02	5.818600e-03	4	false	GAMG	1.433340e-01	1.087400e-03	5	true
76            	smoothSolver	3.255220e-03	2.690290e-04	6	1.018890e-01	9.079680e-03	3	false	GAMG	1.576430e-01	1.063150e-03	4	true
77            	smoothSolver	3.241250e-03	2.681440e-04	6	1.013560e-01	6.223320e-03	4	false	GAMG	1.645720e-01	1.449820e-03	4	true
78            	smoothSolver	3.229670e-03	2.674070e-04	6	9.399230e-02	8.110210e-03	3	false	GAMG	1.527280e-01	1.161950e-03	4	true
79            	smoothSolver	3.217600e-03	2.667190e-04	6	9.068000e-02	9.065570e-03	3	false	GAMG	1.439630e-01	1.250590e-03	4	true
80            	smoothSolver	3.206310e-03	2.659970e-04	6	9.693070e-02	8.291860e-03	3	false	GAMG	1.540140e-01	1.489400e-03	4	true
81            	smoothSolver	3.196220e-03	2.653550e-04	6	1.016290e-01	8.716440e-03	3	false	GAMG	1.520800e-01	5.409540e-04	6	true
82            	smoothSolver	3.184710e-03	2.645810e-04	6	9.198840e-02	8.797430e-03	3	false	GAMG	1.522840e-01	1.489360e-03	4	true
83            	smoothSolver	3.173870e-03	2.638520e-04	6	9.687830e-02	9.044820e-03	3	false	GAMG	1.516570e-01	1.476670e-03	4	true
84            	smoothSolver	3.165150e-03	2.632380e-04	6	1.026410e-01	9.294600e-03	3	false	GAMG	1.464200e-01	1.281190e-03	4	true
85            	smoothSolver	3.155700e-03	2.626380e-04	6	9.400480e-02	7.077830e-03	4	false	GAMG	1.422900e-01	1.130670e-03	5	true
86            	smoothSolver	3.147070e-03	2.620310e-04	6	9.540980e-02	6.483610e-03	4	false	GAMG	1.526830e-01	1.099970e-03	4	true
87            	smoothSolver	3.138810e-03	2.614350e-04	6	9.764400e-02	8.790230e-03	3	false	GAMG	1.548310e-01	1.471980e-03	4	true
88            	smoothSolver	3.131590e-03	2.609510e-04	6	9.510960e-02	8.580440e-03	3	false	GAMG	1.676350e-01	1.273660e-03	4	true
89            	smoothSolver	3.123980e-03	2.604380e-04	6	1.013040e-01	9.891330e-03	3	false	GAMG	1.707590e-01	1.591940e-03	4	true
90            	smoothSolver	3.117090e-03	2.599350e-04	6	1.003080e-01	9.966050e-03	3	false	GAMG	1.790400e-01	1.533470e-03	4	true
91            	smoothSolver	3.110620e-03	2.593750e-04	6	1.034180e-01	8.221330e-03	3	false	GAMG	1.733570e-01	1.208880e-03	4	true
92            	smoothSolver	3.104020e-03	2.588590e-04	6	9.201480e-02	8.010490e-03	3	false	GAMG	1.781480e-01	1.211250e-03	4	true
93            	smoothSolver	3.097310e-03	2.583040e-04	6	1.101160e-01	9.260260e-03	3	false	GAMG	2.098260e-01	1.250370e-03	4	true
94            	smoothSolver	3.091720e-03	2.578170e-04	6	1.023190e-01	8.273910e-03	3	false	GAMG	1.878140e-01	1.835860e-03	4	true
95            	smoothSolver	3.086300e-03	2.573520e-04	6	1.037240e-01	7.739440e-03	3	false	GAMG	1.659320e-01	1.248890e-03	5	true
96            	smoothSolver	3.081240e-03	2.568690e-04	6	1.074740e-01	7.519950e-03	3	false	GAMG	1.615050e-01	1.030540e-03	4	true
97            	smoothSolver	3.076230e-03	2.563960e-04	6	1.188500e-01	8.934760e-03	3	false	GAMG	1.725370e-01	9.718900e-04	4	true
98            	smoothSolver	3.069730e-03	2.558820e-04	6	1.059290e-01	7.367640e-03	3	false	GAMG	1.552740e-01	1.010000e-03	4	true
99            	smoothSolver	3.064390e-03	2.554010e-04	6	1.066760e-01	8.008230e-03	3	false	GAMG	1.489470e-01	1.361710e-03	4	true
100           	smoothSolver	3.060260e-03	2.549630e-04	6	1.187650e-01	8.623570e-03	3	false	GAMG	1.580400e-01	1.466230e-03	5	true
101           	smoothSolver	3.054420e-03	2.544760e-04	6	1.163150e-01	8.246830e-03	3	false	GAMG	1.739920e-01	1.371990e-03	4	true
102           	smoothSolver	3.051120e-03	2.541060e-04	6	1.119050e-01	7.878740e-03	3	false	GAMG	1.685930e-01	1.533960e-03	4	true
103           	smoothSolver	3.045330e-03	2.536050e-04	6	1.239650e-01	9.892920e-03	3	false	GAMG	1.984580e-01	1.362400e-03	4	true
104           	smoothSolver	3.041760e-03	2.532530e-04	6	1.144630e-01	7.707180e-03	3	false	GAMG	1.756060e-01	9.291240e-04	4	true
105           	smoothSolver	3.037430e-03	2.528400e-04	6	1.277310e-01	8.446540e-03	3	false	GAMG	1.840940e-01	1.047660e-03	4	true
106           	smoothSolver	3.033240e-03	2.524090e-04	6	1.311800e-01	8.439860e-03	3	false	GAMG	1.640210e-01	8.982510e-04	4	true
107           	smoothSolver	3.029710e-03	2.519980e-04	6	1.341270e-01	9.991480e-03	3	false	GAMG	1.740160e-01	1.281000e-03	4	true
108           	smoothSolver	3.023950e-03	2.514960e-04	6	1.415390e-01	1.253170e-02	3	false	GAMG	1.812570e-01	1.315710e-03	4	true
109           	smoothSolver	3.019350e-03	2.510360e-04	6	1.523590e-01	1.376360e-02	3	false	GAMG	1.878280e-01	1.186820e-03	4	true
110           	smoothSolver	3.016060e-03	2.506180e-04	6	1.477330e-01	1.201670e-02	3	false	GAMG	1.787690e-01	1.341990e-03	4	true
111           	smoothSolver	3.011800e-03	2.502210e-04	6	1.375750e-01	1.045160e-02	3	false	GAMG	1.688430e-01	1.018440e-03	4	true
112           	smoothSolver	3.009150e-03	2.499050e-04	6	1.484870e-01	9.171380e-03	3	false	GAMG	1.926660e-01	1.236620e-03	4	true
113           	smoothSolver	3.003640e-03	2.494470e-04	6	1.513990e-01	9.594150e-03	3	false	GAMG	1.949010e-01	1.434800e-03	4	true
114           	smoothSolver	2.999820e-03	2.489880e-04	6	1.412720e-01	1.043750e-02	3	false	GAMG	1.874810e-01	1.472930e-03	4	true
115           	smoothSolver	2.994310e-03	2.484670e-04	6	1.491200e-01	1.041600e-02	3	false	GAMG	1.854810e-01	1.674720e-03	4	true
116           	smoothSolver	2.990730e-03	2.480220e-04	6	1.545660e-01	1.054490e-02	3	false	GAMG	1.866300e-01	9.360160e-04	5	true
117           	smoothSolver	2.986090e-03	2.476380e-04	6	1.594860e-01	1.023410e-02	3	false	GAMG	2.029680e-01	1.899200e-03	4	true
118           	smoothSolver	2.981640e-03	2.471280e-04	6	1.631720e-01	1.202030e-02	3	false	GAMG	2.129440e-01	1.275170e-03	5	true
119           	smoothSolver	2.976340e-03	2.465350e-04	6	1.576330e-01	1.102420e-02	3	false	GAMG	2.097060e-01	1.577570e-03	4	true
120           	smoothSolver	2.972170e-03	2.461220e-04	6	1.478690e-01	1.123360e-02	3	false	GAMG	2.215590e-01	1.938170e-03	5	true
121           	smoothSolver	2.966610e-03	2.455830e-04	6	1.639220e-01	1.417650e-02	3	false	GAMG	2.222280e-01	2.134530e-03	4	true
122           	smoothSolver	2.961140e-03	2.450930e-04	6	1.667350e-01	1.372840e-02	3	false	GAMG	2.046080e-01	1.562870e-03	4	true
123           	smoothSolver	2.957190e-03	2.446230e-04	6	1.740330e-01	1.459260e-02	3	false	GAMG	2.112130e-01	1.654370e-03	4	true
124           	smoothSolver	2.952290e-03	2.442160e-04	6	1.702060e-01	1.287470e-02	3	false	GAMG	2.058700e-01	1.976460e-03	4	true
125           	smoothSolver	2.948640e-03	2.437320e-04	6	1.812890e-01	1.389620e-02	3	false	GAMG	2.200720e-01	1.743810e-03	5	true
126           	smoothSolver	2.941970e-03	2.431920e-04	6	1.760210e-01	1.156590e-02	3	false	GAMG	2.387050e-01	1.668640e-03	4	true
127           	smoothSolver	2.938750e-03	2.427460e-04	6	1.788140e-01	1.201840e-02	3	false	GAMG	2.227790e-01	1.684120e-03	4	true
128           	smoothSolver	2.933070e-03	2.422220e-04	6	1.879070e-01	1.356480e-02	3	false	GAMG	2.285510e-01	1.787700e-03	4	true
129           	smoothSolver	2.926570e-03	2.416630e-04	6	2.069840e-01	1.430090e-02	3	false	GAMG	2.415030e-01	2.076650e-03	4	true
130           	smoothSolver	2.922390e-03	2.411560e-04	6	2.119740e-01	1.477740e-02	3	false	GAMG	2.284080e-01	1.883330e-03	4	true
131           	smoothSolver	2.917790e-03	2.406670e-04	6	2.074210e-01	1.578980e-02	3	false	GAMG	2.059400e-01	1.710270e-03	5	true
132           	smoothSolver	2.912720e-03	2.400560e-04	6	2.224560e-01	1.435070e-02	3	false	GAMG	2.351760e-01	1.475960e-03	4	true
133           	smoothSolver	2.908180e-03	2.394830e-04	6	2.390350e-01	1.839750e-02	3	false	GAMG	2.203090e-01	1.636000e-03	5	true
134           	smoothSolver	2.902320e-03	2.388620e-04	6	2.418050e-01	1.586190e-02	3	false	GAMG	2.152260e-01	1.665580e-03	4	true
135           	smoothSolver	2.896540e-03	2.383380e-04	6	2.454870e-01	1.849630e-02	3	false	GAMG	2.051790e-01	1.862480e-03	4	true
136           	smoothSolver	2.891270e-03	2.377400e-04	6	2.378940e-01	1.985760e-02	3	false	GAMG	1.974690e-01	1.914750e-03	4	true
137           	smoothSolver	2.887520e-03	2.371790e-04	6	2.466300e-01	2.265700e-02	3	false	GAMG	2.004960e-01	1.643150e-03	5	true
138           	smoothSolver	2.881300e-03	2.365390e-04	6	2.692890e-01	2.514180e-02	3	false	GAMG	2.372050e-01	1.472770e-03	5	true
139           	smoothSolver	2.873060e-03	2.358470e-04	6	2.582930e-01	2.333540e-02	3	false	GAMG	2.280000e-01	1.577850e-03	5	true
140           	smoothSolver	2.870220e-03	2.353340e-04	6	2.566540e-01	2.152380e-02	3	false	GAMG	2.280520e-01	1.270100e-03	5	true
141           	smoothSolver	2.863770e-03	2.347280e-04	6	2.553700e-01	2.294250e-02	3	false	GAMG	2.133390e-01	1.126170e-03	5	true
142           	smoothSolver	2.859730e-03	2.341520e-04	6	2.674770e-01	2.475250e-02	3	false	GAMG	2.174300e-01	1.048490e-03	5	true
143           	smoothSolver	2.851090e-03	2.334380e-04	6	2.771500e-01	2.768380e-02	3	false	GAMG	2.276930e-01	1.607420e-03	5	true
144           	smoothSolver	2.845390e-03	2.327760e-04	6	2.780520e-01	2.002830e-02	3	false	GAMG	2.347250e-01	1.660010e-03	4	true
145           	smoothSolver	2.840150e-03	2.322070e-04	6	2.612220e-01	2.029400e-02	3	false	GAMG	2.277070e-01	1.557060e-03	5	true
146           	smoothSolver	2.832980e-03	2.315480e-04	6	2.757780e-01	2.226040e-02	3	false	GAMG	2.403580e-01	1.866920e-03	4	true
147           	smoothSolver	2.826280e-03	2.308300e-04	6	2.860160e-01	2.208390e-02	3	false	GAMG	2.217450e-01	2.109030e-03	4	true
148           	smoothSolver	2.818200e-03	2.300950e-04	6	2.673550e-01	2.105770e-02	3	false	GAMG	2.001460e-01	1.011910e-03	5	true
149           	smoothSolver	2.812420e-03	2.294510e-04	6	2.745190e-01	2.074520e-02	3	false	GAMG	2.138380e-01	1.867690e-03	4	true
150           	smoothSolver	2.804620e-03	2.287310e-04	6	2.733010e-01	2.346150e-02	3	false	GAMG	2.192080e-01	1.406670e-03	5	true
151           	smoothSolver	2.799580e-03	2.280150e-04	6	3.084360e-01	2.812760e-02	3	false	GAMG	2.287860e-01	1.256360e-03	5	true
152           	smoothSolver	2.791580e-03	2.272040e-04	6	3.155310e-01	2.360360e-02	3	false	GAMG	2.562900e-01	2.017120e-03	4	true
153           	smoothSolver	2.784900e-03	2.265570e-04	6	3.027800e-01	2.268850e-02	3	false	GAMG	2.077730e-01	1.441490e-03	5	true
154           	smoothSolver	2.777810e-03	2.258130e-04	6	3.016380e-01	2.006570e-02	3	false	GAMG	2.209120e-01	2.149280e-03	4	true
155           	smoothSolver	2.768660e-03	2.251170e-04	6	3.147130e-01	2.239080e-02	3	false	GAMG	2.099340e-01	1.538920e-03	5	true
156           	smoothSolver	2.760160e-03	2.243600e-04	6	2.889270e-01	2.031500e-02	3	false	GAMG	2.130100e-01	1.050780e-03	5	true
157           	smoothSolver	2.754110e-03	2.235870e-04	6	3.179490e-01	2.283770e-02	3	false	GAMG	2.252530e-01	1.420110e-03	5	true
158           	smoothSolver	2.745170e-03	2.228610e-04	6	2.912140e-01	2.050700e-02	3	false	GAMG	2.047170e-01	1.943640e-03	4	true
159           	smoothSolver	2.739740e-03	2.221160e-04	6	3.202850e-01	2.339570e-02	3	false	GAMG	2.098210e-01	1.131180e-03	5	true
160           	smoothSolver	2.730840e-03	2.213340e-04	6	3.154800e-01	2.590430e-02	3	false	GAMG	2.106740e-01	1.149760e-03	5	true
161           	smoothSolver	2.723210e-03	2.206580e-04	6	3.285000e-01	2.439070e-02	3	false	GAMG	2.083630e-01	1.102120e-03	5	true
162           	smoothSolver	2.718620e-03	2.200740e-04	6	3.273380e-01	2.620240e-02	3	false	GAMG	2.250670e-01	1.999060e-03	4	true
163           	smoothSolver	2.711550e-03	2.192810e-04	6	3.244900e-01	2.196580e-02	3	false	GAMG	2.246300e-01	2.179150e-03	4	true
164           	smoothSolver	2.706080e-03	2.185640e-04	6	3.378520e-01	2.326140e-02	3	false	GAMG	2.298820e-01	2.295270e-03	4	true
165           	smoothSolver	2.696430e-03	2.176350e-04	6	3.518980e-01	2.654510e-02	3	false	GAMG	2.337160e-01	1.365670e-03	5	true
166           	smoothSolver	2.692220e-03	2.170370e-04	6	3.497030e-01	2.501060e-02	3	false	GAMG	2.254550e-01	1.818250e-03	5	true
167           	smoothSolver	2.681840e-03	2.161890e-04	6	3.448290e-01	2.520310e-02	3	false	GAMG	2.067080e-01	1.560350e-03	5	true
168           	smoothSolver	2.673730e-03	2.154500e-04	6	3.603460e-01	2.621780e-02	3	false	GAMG	2.152440e-01	1.889400e-03	5	true
169           	smoothSolver	2.666030e-03	2.146180e-04	6	3.754950e-01	3.030340e-02	3	false	GAMG	2.279460e-01	1.826320e-03	5	true
170           	smoothSolver	2.656960e-03	2.138610e-04	6	3.620250e-01	3.084380e-02	3	false	GAMG	2.083240e-01	1.391070e-03	5	true
171           	smoothSolver	2.650720e-03	2.130620e-04	6	3.953420e-01	2.926330e-02	3	false	GAMG	2.279340e-01	1.902710e-03	5	true
172           	smoothSolver	2.640970e-03	2.122610e-04	6	4.014780e-01	2.804690e-02	3	false	GAMG	2.423850e-01	1.626730e-03	5	true
173           	smoothSolver	2.632730e-03	2.114100e-04	6	4.088470e-01	3.034430e-02	3	false	GAMG	2.275530e-01	1.213310e-03	5	true
174           	smoothSolver	2.627710e-03	2.107520e-04	6	4.508140e-01	3.898750e-02	3	false	GAMG	2.642070e-01	9.902530e-04	6	true
175           	smoothSolver	2.620240e-03	2.101340e-04	6	4.238650e-01	3.714100e-02	3	false	GAMG	2.276400e-01	1.960430e-03	5	true
176           	smoothSolver	2.612000e-03	2.093060e-04	6	4.413880e-01	4.148850e-02	3	false	GAMG	2.243360e-01	1.481740e-03	5	true
177           	smoothSolver	2.602780e-03	2.084670e-04	6	4.086200e-01	3.375900e-02	3	false	GAMG	2.095080e-01	1.189480e-03	5	true
178           	smoothSolver	2.594970e-03	2.077440e-04	6	4.124570e-01	3.129170e-02	3	false	GAMG	1.909600e-01	9.709870e-04	5	true
179           	smoothSolver	2.587650e-03	2.070940e-04	6	4.238310e-01	3.556850e-02	3	false	GAMG	2.116100e-01	1.128130e-03	5	true
180           	smoothSolver	2.577240e-03	2.061960e-04	6	4.316940e-01	3.018530e-02	3	false	GAMG	2.130350e-01	1.158230e-03	5	true
181           	smoothSolver	2.571750e-03	2.054440e-04	6	4.365090e-01	3.039540e-02	3	false	GAMG	1.738420e-01	8.542510e-04	5	true
182           	smoothSolver	2.557890e-03	2.043640e-04	6	4.164000e-01	3.003750e-02	3	false	GAMG	1.977090e-01	1.672110e-03	5	true
183           	smoothSolver	2.551890e-03	2.036180e-04	6	4.230790e-01	3.090200e-02	3	false	GAMG	2.103720e-01	1.100560e-03	5	true
184           	smoothSolver	2.542480e-03	2.029440e-04	6	4.272690e-01	2.982140e-02	3	false	GAMG	2.074090e-01	1.758070e-03	5	true
185           	smoothSolver	2.536290e-03	2.021210e-04	6	4.139310e-01	2.871030e-02	3	false	GAMG	2.000100e-01	1.499800e-03	5	true
186           	smoothSolver	2.530000e-03	2.014230e-04	6	4.176090e-01	3.408290e-02	3	false	GAMG	2.105800e-01	1.635530e-03	5	true
187           	smoothSolver	2.519420e-03	2.007600e-04	6	4.127450e-01	2.683190e-02	3	false	GAMG	2.104090e-01	1.892440e-03	5	true
188           	smoothSolver	2.512770e-03	2.000150e-04	6	4.539380e-01	3.129090e-02	3	false	GAMG	2.433040e-01	1.567150e-03	5	true
189           	smoothSolver	2.502860e-03	1.991480e-04	6	4.462230e-01	2.882410e-02	3	false	GAMG	2.169990e-01	1.184110e-03	5	true
190           	smoothSolver	2.495280e-03	1.983140e-04	6	4.394800e-01	2.825930e-02	3	false	GAMG	2.472160e-01	2.409180e-03	4	true
191           	smoothSolver	2.491290e-03	1.978040e-04	6	4.347670e-01	3.500040e-02	3	false	GAMG	2.305810e-01	1.302740e-03	5	true
192           	smoothSolver	2.479300e-03	1.970360e-04	6	4.427910e-01	3.326350e-02	3	false	GAMG	2.331020e-01	1.271380e-03	5	true
193           	smoothSolver	2.475450e-03	1.962390e-04	6	4.271000e-01	2.842390e-02	3	false	GAMG	2.337390e-01	2.314520e-03	4	true
194           	smoothSolver	2.467180e-03	1.955610e-04	6	4.440460e-01	2.892940e-02	3	false	GAMG	2.251400e-01	2.063940e-03	4	true
195           	smoothSolver	2.455020e-03	1.946000e-04	6	4.198740e-01	2.922190e-02	3	false	GAMG	2.194280e-01	2.169530e-03	4	true
196           	smoothSolver	2.446730e-03	1.938300e-04	6	4.175120e-01	2.675490e-02	3	false	GAMG	2.111230e-01	1.322680e-03	5	true
197           	smoothSolver	2.438930e-03	1.931400e-04	6	4.160330e-01	2.626650e-02	3	false	GAMG	1.954180e-01	1.925740e-03	4	true
198           	smoothSolver	2.431760e-03	1.924130e-04	6	4.413350e-01	2.603540e-02	3	false	GAMG	2.075020e-01	9.646700e-04	5	true
199           	smoothSolver	2.419040e-03	1.913970e-04	6	4.412460e-01	2.640580e-02	3	false	GAMG	2.303300e-01	2.125450e-03	4	true
200           	smoothSolver	2.412650e-03	1.906100e-04	6	4.348590e-01	2.901080e-02	3	false	GAMG	2.489820e-01	1.397840e-03	5	true
201           	smoothSolver	2.407060e-03	1.900270e-04	6	4.267930e-01	2.595160e-02	3	false	GAMG	2.465110e-01	1.719950e-03	5	true
202           	smoothSolver	2.396740e-03	1.891790e-04	6	4.002940e-01	2.939370e-02	3	false	GAMG	2.431630e-01	1.591330e-03	5	true
203           	smoothSolver	2.389550e-03	1.885110e-04	6	3.842040e-01	3.274670e-02	3	false	GAMG	2.212540e-01	1.358000e-03	5	true
204           	smoothSolver	2.375860e-03	1.875670e-04	6	4.118530e-01	3.243000e-02	3	false	GAMG	2.481040e-01	1.341190e-03	5	true
205           	smoothSolver	2.370460e-03	1.867620e-04	6	4.448970e-01	3.516770e-02	3	false	GAMG	2.479890e-01	1.165400e-03	5	true
206           	smoothSolver	2.362270e-03	1.858960e-04	6	4.428470e-01	3.235210e-02	3	false	GAMG	2.374190e-01	1.387090e-03	5	true
207           	smoothSolver	2.355890e-03	1.851900e-04	6	4.146830e-01	3.041200e-02	3	false	GAMG	2.499360e-01	2.003250e-03	5	true
208           	smoothSolver	2.348250e-03	1.844100e-04	6	4.350690e-01	2.881220e-02	3	false	GAMG	2.373660e-01	1.816830e-03	5	true
209           	smoothSolver	2.336880e-03	1.835870e-04	6	4.076900e-01	3.470940e-02	3	false	GAMG	2.408830e-01	1.416130e-03	5	true
210           	smoothSolver	2.328840e-03	1.827210e-04	6	3.995730e-01	2.985800e-02	3	false	GAMG	2.203020e-01	1.514420e-03	5	true
211           	smoothSolver	2.320150e-03	1.818660e-04	6	4.064610e-01	2.888010e-02	3	false	GAMG	2.417220e-01	2.323870e-03	4	true
212           	smoothSolver	2.311630e-03	1.811150e-04	6	4.381260e-01	3.453860e-02	3	false	GAMG	2.348850e-01	1.341400e-03	5	true
213           	smoothSolver	2.303670e-03	1.802530e-04	6	4.478060e-01	3.730210e-02	3	false	GAMG	2.527170e-01	1.549300e-03	5	true
214           	smoothSolver	2.297010e-03	1.794270e-04	6	4.235020e-01	3.551130e-02	3	false	GAMG	2.341320e-01	1.456980e-03	5	true
215           	smoothSolver	2.288070e-03	1.786030e-04	6	4.326030e-01	3.456240e-02	3	false	GAMG	2.442830e-01	1.887580e-03	5	true
216           	smoothSolver	2.278940e-03	1.777620e-04	6	4.414390e-01	3.286390e-02	3	false	GAMG	2.496120e-01	1.845790e-03	5	true
217           	smoothSolver	2.268160e-03	1.769650e-04	6	4.245370e-01	3.456810e-02	3	false	GAMG	2.353030e-01	2.302550e-03	4	true
218           	smoothSolver	2.261510e-03	1.761420e-04	6	4.022610e-01	2.989770e-02	3	false	GAMG	2.308570e-01	2.116690e-03	5	true
219           	smoothSolver	2.251210e-03	1.753560e-04	6	4.364210e-01	3.597340e-02	3	false	GAMG	2.349000e-01	2.176420e-03	5	true
220           	smoothSolver	2.240440e-03	1.742360e-04	6	4.382380e-01	3.461080e-02	3	false	GAMG	2.503580e-01	1.520560e-03	5	true
221           	smoothSolver	2.228990e-03	1.733060e-04	6	4.473990e-01	3.492460e-02	3	false	GAMG	2.594700e-01	2.118500e-03	5	true
222           	smoothSolver	2.221010e-03	1.724640e-04	6	4.300250e-01	3.566510e-02	3	false	GAMG	2.228070e-01	9.451320e-04	6	true
223           	smoothSolver	2.206250e-03	1.715460e-04	6	4.544010e-01	3.895190e-02	3	false	GAMG	2.123360e-01	1.537340e-03	5	true
224           	smoothSolver	2.204100e-03	1.708550e-04	6	4.583390e-01	4.190970e-02	3	false	GAMG	2.211580e-01	1.615080e-03	5	true
225           	smoothSolver	2.194310e-03	1.699840e-04	6	4.513020e-01	3.379870e-02	3	false	GAMG	2.165570e-01	1.114540e-03	5	true
226           	smoothSolver	2.185870e-03	1.691360e-04	6	4.429130e-01	3.297120e-02	3	false	GAMG	2.149570e-01	1.605780e-03	5	true
227           	smoothSolver	2.178030e-03	1.683180e-04	6	4.267850e-01	2.994740e-02	3	false	GAMG	2.247250e-01	1.912390e-03	5	true
228           	smoothSolver	2.170730e-03	1.673840e-04	6	4.595540e-01	3.417590e-02	3	false	GAMG	2.324590e-01	2.120890e-03	5	true
229           	smoothSolver	2.158750e-03	1.665140e-04	6	4.493400e-01	3.638980e-02	3	false	GAMG	2.276990e-01	1.647400e-03	5	true
230           	smoothSolver	2.147200e-03	1.656090e-04	6	4.744690e-01	3.736120e-02	3	false	GAMG	2.193610e-01	1.913100e-03	5	true
231           	smoothSolver	2.140060e-03	1.647980e-04	6	4.370080e-01	3.254820e-02	3	false	GAMG	2.165300e-01	2.139350e-03	5	true
232           	smoothSolver	2.130810e-03	1.639190e-04	6	4.192880e-01	2.799990e-02	3	false	GAMG	2.101430e-01	1.924530e-03	5	true