# Solver information
# Time        	U_solver      	Ux_initial    	Ux_final      	Ux_iters      	Uy_initial    	Uy_final      	Uy_iters      	U_converged   	p_solver      	p_initial     	p_final       	p_iters       	p_converged   
1             	smoothSolver	0.000000e+00	0.000000e+00	0	0.000000e+00	0.000000e+00	0	false	GAMG	9.999940e-01	7.390300e-03	5	true
2             	smoothSolver	8.087750e-02	5.230670e-03	5	1.000000e+00	3.695240e-02	2	false	GAMG	1.000000e+00	6.952790e-03	4	true
3             	smoothSolver	3.710950e-02	2.282310e-03	3	6.326590e-01	3.597610e-02	2	false	GAMG	2.376750e-01	1.945670e-03	5	true
4             	smoothSolver	2.232820e-02	1.552340e-03	4	5.175570e-01	4.578030e-02	2	false	GAMG	1.439240e-01	8.619720e-04	5	true
5             	smoothSolver	1.595870e-02	1.452990e-03	4	4.690970e-01	2.622160e-02	3	false	GAMG	1.242610e-01	1.093490e-03	4	true
6             	smoothSolver	1.330960e-02	9.020040e-04	5	4.715350e-01	2.666180e-02	3	false	GAMG	1.193760e-01	3.542350e-04	6	true
7             	smoothSolver	1.139750e-02	8.589500e-04	5	4.892740e-01	3.573700e-02	3	false	GAMG	1.261800e-01	1.079070e-03	4	true
8             	smoothSolver	9.965400e-03	8.393460e-04	5	4.465270e-01	3.931570e-02	3	false	GAMG	1.188330e-01	1.136880e-03	4	true
9             	smoothSolver	8.996390e-03	8.266130e-04	5	3.811860e-01	3.759290e-02	3	false	GAMG	1.060630e-01	9.967270e-04	5	true
10            	smoothSolver	8.212700e-03	8.083060e-04	5	3.476440e-01	2.467090e-02	4	false	GAMG	9.400010e-02	3.903100e-04	6	true
11            	smoothSolver	7.590300e-03	5.118800e-04	6	3.069780e-01	2.562730e-02	4	false	GAMG	9.470850e-02	6.881820e-04	5	true
12            	smoothSolver	7.174350e-03	5.037200e-04	6	2.946720e-01	2.429160e-02	4	false	GAMG	8.972350e-02	6.225500e-04	5	true
13            	smoothSolver	6.977060e-03	5.000870e-04	6	2.659890e-01	2.380060e-02	4	false	GAMG	7.271830e-02	5.789180e-04	5	true
14            	smoothSolver	6.822520e-03	4.930490e-04	6	2.657370e-01	2.197190e-02	4	false	GAMG	8.240240e-02	4.436040e-04	7	true
15            	smoothSolver	6.684850e-03	4.846270e-04	6	2.592010e-01	2.300670e-02	4	false	GAMG	8.338000e-02	7.488760e-04	5	true
16            	smoothSolver	6.610640e-03	4.832160e-04	6	2.365750e-01	2.332770e-02	4	false	GAMG	8.428710e-02	8.120810e-04	5	true
17            	smoothSolver	6.558140e-03	4.818300e-04	6	2.405460e-01	1.526960e-02	5	false	GAMG	9.433990e-02	8.413940e-04	5	true
18            	smoothSolver	6.459590e-03	4.750770e-04	6	2.288830e-01	1.470510e-02	5	false	GAMG	9.163040e-02	5.870680e-04	7	true
19            	smoothSolver	6.372480e-03	4.699220e-04	6	2.181830e-01	1.478370e-02	5	false	GAMG	7.226260e-02	6.498500e-04	5	true
20            	smoothSolver	6.360080e-03	4.712900e-04	6	2.192880e-01	2.150670e-02	4	false	GAMG	7.133240e-02	5.147520e-04	5	true
21            	smoothSolver	6.333110e-03	4.699940e-04	6	2.221880e-01	2.007160e-02	4	false	GAMG	7.379340e-02	6.927200e-04	5	true
22            	smoothSolver	6.257560e-03	4.669960e-04	6	2.294300e-01	2.045020e-02	4	false	GAMG	7.282650e-02	4.867290e-04	6	true
23            	smoothSolver	6.216240e-03	4.646240e-04	6	2.311150e-01	1.801100e-02	4	false	GAMG	7.452110e-02	6.913570e-04	5	true
24            	smoothSolver	6.155830e-03	4.619410e-04	6	2.268280e-01	1.860330e-02	4	false	GAMG	7.122420e-02	6.796590e-04	5	true
25            	smoothSolver	6.107640e-03	4.597560e-04	6	2.163880e-01	1.847140e-02	4	false	GAMG	6.856250e-02	5.918680e-04	5	true
26            	smoothSolver	6.051830e-03	4.567490e-04	6	2.094130e-01	1.665280e-02	4	false	GAMG	7.548070e-02	6.924420e-04	5	true
27            	smoothSolver	6.002380e-03	4.549460e-04	6	2.130490e-01	1.576100e-02	4	false	GAMG	7.149350e-02	7.086890e-04	5	true
28            	smoothSolver	5.950420e-03	4.528380e-04	6	1.940980e-01	1.375260e-02	4	false	GAMG	7.381550e-02	6.685410e-04	4	true
29            	smoothSolver	5.890090e-03	4.490450e-04	6	1.805600e-01	1.768010e-02	3	false	GAMG	7.675030e-02	4.775360e-04	5	true
30            	smoothSolver	5.848450e-03	4.466970e-04	6	1.761930e-01	1.176400e-02	4	false	GAMG	6.955070e-02	4.898770e-04	5	true
31            	smoothSolver	5.802810e-03	4.446090e-04	6	1.644730e-01	1.597050e-02	3	false	GAMG	6.056400e-02	5.094930e-04	5	true
32            	smoothSolver	5.744910e-03	4.409210e-04	6	1.689440e-01	1.430390e-02	3	false	GAMG	6.276830e-02	5.773290e-04	5	true
33            	smoothSolver	5.699930e-03	4.384430e-04	6	1.571820e-01	1.244110e-02	3	false	GAMG	6.389360e-02	5.646510e-04	5	true
34            	smoothSolver	5.646890e-03	4.351360e-04	6	1.494670e-01	1.318370e-02	3	false	GAMG	6.187420e-02	4.078310e-04	5	true
35            	smoothSolver	5.592510e-03	4.321070e-04	6	1.459010e-01	1.440090e-02	3	false	GAMG	6.018600e-02	5.481520e-04	5	true
36            	smoothSolver	5.541150e-03	4.292260e-04	6	1.360230e-01	1.244770e-02	3	false	GAMG	6.533810e-02	6.375260e-04	4	true
37            	smoothSolver	5.489830e-03	4.262100e-04	6	1.312240e-01	9.280870e-03	4	false	GAMG	7.271420e-02	6.449160e-04	4	true
38            	smoothSolver	5.443370e-03	4.234090e-04	6	1.263580e-01	8.883850e-03	4	false	GAMG	5.750480e-02	5.145060e-04	5	true
39            	smoothSolver	5.399450e-03	4.207570e-04	6	1.259220e-01	7.983870e-03	4	false	GAMG	5.759560e-02	3.095320e-04	5	true
40            	smoothSolver	5.348890e-03	4.178320e-04	6	1.189970e-01	8.461580e-03	4	false	GAMG	5.036170e-02	3.056610e-04	5	true
41            	smoothSolver	5.303200e-03	4.151770e-04	6	1.233750e-01	7.776200e-03	4	false	GAMG	5.667390e-02	4.166600e-04	5	true
42            	smoothSolver	5.261550e-03	4.128550e-04	6	1.113980e-01	9.778390e-03	4	false	GAMG	5.332750e-02	3.442140e-04	6	true
43            	smoothSolver	5.217790e-03	4.101400e-04	6	1.107540e-01	9.038230e-03	4	false	GAMG	5.801570e-02	3.671400e-04	6	true
44            	smoothSolver	5.170790e-03	4.074120e-04	6	1.070670e-01	7.465380e-03	4	false	GAMG	5.648720e-02	2.463280e-04	6	true
45            	smoothSolver	5.130720e-03	4.048850e-04	6	1.132290e-01	1.127640e-02	3	false	GAMG	6.583860e-02	5.922670e-04	5	true
46            	smoothSolver	5.089670e-03	4.024670e-04	6	1.106780e-01	6.638070e-03	4	false	GAMG	6.496610e-02	5.181000e-04	4	true
47            	smoothSolver	5.049920e-03	4.001000e-04	6	1.084390e-01	9.804230e-03	3	false	GAMG	6.680440e-02	5.626120e-04	5	true
48            	smoothSolver	5.013430e-03	3.979390e-04	6	9.902610e-02	6.581800e-03	4	false	GAMG	6.473180e-02	2.317570e-04	6	true
49            	smoothSolver	4.973060e-03	3.953890e-04	6	1.113830e-01	6.858630e-03	4	false	GAMG	7.124940e-02	5.965220e-04	5	true
50            	smoothSolver	4.935560e-03	3.931540e-04	6	1.166380e-01	9.940250e-03	3	false	GAMG	8.094310e-02	7.504390e-04	4	true
51            	smoothSolver	4.900230e-03	3.911680e-04	6	1.072390e-01	6.453540e-03	4	false	GAMG	7.838590e-02	6.832350e-04	4	true
52            	smoothSolver	4.863160e-03	3.889170e-04	6	1.135500e-01	1.054720e-02	3	false	GAMG	7.870770e-02	4.712560e-04	5	true
53            	smoothSolver	4.829020e-03	3.868010e-04	6	1.039600e-01	6.501830e-03	4	false	GAMG	8.383390e-02	7.088870e-04	4	true
54            	smoothSolver	4.798030e-03	3.850180e-04	6	1.015180e-01	8.819680e-03	3	false	GAMG	8.628540e-02	7.318380e-04	4	true
55            	smoothSolver	4.767600e-03	3.832340e-04	6	9.744770e-02	5.998240e-03	4	false	GAMG	8.446810e-02	5.135720e-04	4	true
56            	smoothSolver	4.740250e-03	3.816960e-04	6	1.000290e-01	6.095680e-03	4	false	GAMG	8.246020e-02	5.482810e-04	5	true
57            	smoothSolver	4.713790e-03	3.801450e-04	6	9.368770e-02	6.153240e-03	4	false	GAMG	9.282990e-02	8.753850e-04	5	true
58            	smoothSolver	4.688860e-03	3.786300e-04	6	9.155390e-02	9.069450e-03	3	false	GAMG	8.446250e-02	7.848930e-04	5	true
59            	smoothSolver	4.663610e-03	3.772110e-04	6	9.419530e-02	9.131880e-03	3	false	GAMG	8.598510e-02	6.968540e-04	5	true
60            	smoothSolver	4.641030e-03	3.759060e-04	6	9.852660e-02	6.060000e-03	4	false	GAMG	9.203370e-02	7.471470e-04	5	true
61            	smoothSolver	4.619940e-03	3.747600e-04	6	9.521220e-02	6.474400e-03	4	false	GAMG	1.089630e-01	8.424280e-04	4	true
62            	smoothSolver	4.600770e-03	3.736850e-04	6	9.157990e-02	6.185990e-03	4	false	GAMG	1.054510e-01	1.003730e-03	4	true
63            	smoothSolver	4.579120e-03	3.725000e-04	6	1.012930e-01	6.814470e-03	4	false	GAMG	1.218860e-01	8.405300e-04	4	true
64            	smoothSolver	4.562060e-03	3.715250e-04	6	1.029800e-01	6.505040e-03	4	false	GAMG	1.120010e-01	1.094640e-03	4	true
65            	smoothSolver	4.543720e-03	3.705430e-04	6	9.317520e-02	6.118310e-03	4	false	GAMG	9.451510e-02	6.705670e-04	4	true
66            	smoothSolver	4.527820e-03	3.696520e-04	6	9.346860e-02	6.251800e-03	4	false	GAMG	1.000560e-01	8.260900e-04	4	true
67            	smoothSolver	4.512490e-03	3.687600e-04	6	1.000240e-01	9.782660e-03	3	false	GAMG	1.017260e-01	6.678220e-04	4	true
68            	smoothSolver	4.498350e-03	3.680200e-04	6	1.039320e-01	1.006580e-02	3	false	GAMG	1.007680e-01	6.336340e-04	4	true
69            	smoothSolver	4.483940e-03	3.672240e-04	6	1.032030e-01	1.024960e-02	3	false	GAMG	1.044850e-01	9.766760e-04	4	true
70            	smoothSolver	4.470940e-03	3.666540e-04	6	1.023120e-01	1.014460e-02	3	false	GAMG	9.883250e-02	8.910320e-04	5	true
71            	smoothSolver	4.458850e-03	3.660540e-04	6	1.032810e-01	9.483720e-03	3	false	GAMG	1.151100e-01	9.490470e-04	4	true
72            	smoothSolver	4.447890e-03	3.655150e-04	6	1.023780e-01	9.598350e-03	3	false	GAMG	1.192590e-01	9.063540e-04	4	true
73            	smoothSolver	4.437690e-03	3.649530e-04	6	1.055320e-01	9.846600e-03	3	false	GAMG	1.206070e-01	8.621570e-04	4	true
74            	smoothSolver	4.426050e-03	3.644190e-04	6	1.079020e-01	1.002240e-02	3	false	GAMG	1.207130e-01	8.856800e-04	4	true
75            	smoothSolver	4.416430e-03	3.639040e-04	6	1.047870e-01	9.827370e-03	3	false	GAMG	1.260680e-01	7.233840e-04	4	true
76            	smoothSolver	4.408080e-03	3.634630e-04	6	1.042040e-01	6.386760e-03	4	false	GAMG	1.133460e-01	9.015550e-04	5	true
77            	smoothSolver	4.399380e-03	3.630300e-04	6	1.062670e-01	6.552470e-03	4	false	GAMG	1.222830e-01	9.286560e-04	4	true
78            	smoothSolver	4.392020e-03	3.626720e-04	6	1.185770e-01	1.056620e-02	3	false	GAMG	1.252240e-01	9.837830e-04	4	true
79            	smoothSolver	4.385140e-03	3.623860e-04	6	1.169250e-01	1.152530e-02	3	false	GAMG	1.130190e-01	1.074870e-03	4	true
80            	smoothSolver	4.378740e-03	3.620140e-04	6	1.249390e-01	1.148780e-02	3	false	GAMG	1.286710e-01	9.610020e-04	4	true
81            	smoothSolver	4.371940e-03	3.617110e-04	6	1.121060e-01	1.021270e-02	3	false	GAMG	1.229750e-01	1.085370e-03	5	true
82            	smoothSolver	4.367040e-03	3.614620e-04	6	1.178340e-01	1.034440e-02	3	false	GAMG	1.299980e-01	9.456350e-04	4	true
83            	smoothSolver	4.362750e-03	3.612180e-04	6	1.169920e-01	1.067310e-02	3	false	GAMG	1.340130e-01	1.140460e-03	4	true
84            	smoothSolver	4.355250e-03	3.607840e-04	6	1.421120e-01	1.168920e-02	3	false	GAMG	1.538290e-01	1.191980e-03	5	true
85            	smoothSolver	4.351670e-03	3.605720e-04	6	1.218540e-01	1.095360e-02	3	false	GAMG	1.429740e-01	1.060350e-03	4	true
86            	smoothSolver	4.346310e-03	3.602890e-04	6	1.204440e-01	7.174010e-03	4	false	GAMG	1.466740e-01	9.229070e-04	4	true
87            	smoothSolver	4.341420e-03	3.600150e-04	6	1.330230e-01	1.278320e-02	3	false	GAMG	1.504030e-01	1.270800e-03	4	true
88            	smoothSolver	4.336760e-03	3.597900e-04	6	1.344540e-01	1.139460e-02	3	false	GAMG	1.644320e-01	1.386450e-03	4	true
89            	smoothSolver	4.332520e-03	3.595400e-04	6	1.292290e-01	1.151470e-02	3	false	GAMG	1.555130e-01	1.210670e-03	5	true
90            	smoothSolver	4.330000e-03	3.594200e-04	6	1.331730e-01	1.248580e-02	3	false	GAMG	1.396650e-01	9.478410e-04	4	true
91            	smoothSolver	4.325330e-03	3.591710e-04	6	1.254710e-01	1.093370e-02	3	false	GAMG	1.350080e-01	7.396140e-04	4	true
92            	smoothSolver	4.322480e-03	3.589450e-04	6	1.258220e-01	1.128550e-02	3	false	GAMG	1.488890e-01	7.400770e-04	4	true
93            	smoothSolver	4.318450e-03	3.587360e-04	6	1.412830e-01	1.223460e-02	3	false	GAMG	1.589520e-01	8.319710e-04	4	true
94            	smoothSolver	4.316500e-03	3.585880e-04	6	1.345430e-01	1.076190e-02	3	false	GAMG	1.469630e-01	7.407990e-04	4	true
95            	smoothSolver	4.311720e-03	3.582650e-04	6	1.565530e-01	1.185480e-02	3	false	GAMG	1.570630e-01	8.738550e-04	4	true
96            	smoothSolver	4.307810e-03	3.579400e-04	6	1.486970e-01	1.180720e-02	3	false	GAMG	1.433110e-01	7.783300e-04	4	true
97            	smoothSolver	4.304670e-03	3.576950e-04	6	1.484170e-01	1.214120e-02	3	false	GAMG	1.443950e-01	7.610460e-04	4	true
98            	smoothSolver	4.301610e-03	3.575010e-04	6	1.607250e-01	1.250240e-02	3	false	GAMG	1.456540e-01	9.516190e-04	4	true
99            	smoothSolver	4.298640e-03	3.572990e-04	6	1.657150e-01	1.400250e-02	3	false	GAMG	1.699970e-01	1.066500e-03	4	true
100           	smoothSolver	4.295380e-03	3.570430e-04	6	1.587420e-01	1.517880e-02	3	false	GAMG	1.440380e-01	1.195270e-03	4	true
101           	smoothSolver	4.290870e-03	3.567530e-04	6	1.821490e-01	1.559360e-02	3	false	GAMG	1.535340e-01	1.169910e-03	4	true
102           	smoothSolver	4.288810e-03	3.565790e-04	6	1.681310e-01	1.496130e-02	3	false	GAMG	1.457450e-01	1.451560e-03	5	true
103           	smoothSolver	4.285140e-03	3.563010e-04	6	1.822820e-01	1.406200e-02	3	false	GAMG	1.480280e-01	1.322580e-03	4	true
104           	smoothSolver	4.281670e-03	3.560490e-04	6	1.939380e-01	1.372520e-02	3	false	GAMG	1.303580e-01	8.197310e-04	4	true
105           	smoothSolver	4.280110e-03	3.558460e-04	6	1.997160e-01	1.425160e-02	3	false	GAMG	1.480080e-01	8.947970e-04	4	true
106           	smoothSolver	4.276110e-03	3.556130e-04	6	2.143080e-01	1.517290e-02	3	false	GAMG	1.556410e-01	8.462160e-04	4	true
107           	smoothSolver	4.273760e-03	3.553170e-04	6	2.048450e-01	1.433290e-02	3	false	GAMG	1.575310e-01	1.058770e-03	4	true
108           	smoothSolver	4.269710e-03	3.549950e-04	6	1.958960e-01	1.294020e-02	3	false	GAMG	1.432390e-01	1.363060e-03	4	true
109           	smoothSolver	4.266650e-03	3.546520e-04	6	2.109880e-01	1.594850e-02	3	false	GAMG	1.609200e-01	4.978390e-04	6	true
110           	smoothSolver	4.264880e-03	3.545310e-04	6	2.131610e-01	1.638250e-02	3	false	GAMG	1.774610e-01	1.173790e-03	4	true
111           	smoothSolver	4.263680e-03	3.544110e-04	6	2.007950e-01	1.760460e-02	3	false	GAMG	1.658320e-01	1.161580e-03	4	true
112           	smoothSolver	4.260350e-03	3.540760e-04	6	2.196520e-01	1.786940e-02	3	false	GAMG	1.609340e-01	1.155710e-03	4	true
113           	smoothSolver	4.257820e-03	3.537980e-04	6	2.205980e-01	1.958410e-02	3	false	GAMG	1.892760e-01	1.697900e-03	4	true
114           	smoothSolver	4.254090e-03	3.535220e-04	6	2.337770e-01	1.718590e-02	3	false	GAMG	1.895790e-01	1.510290e-03	4	true
115           	smoothSolver	4.250360e-03	3.531260e-04	6	2.275820e-01	1.732780e-02	3	false	GAMG	1.747660e-01	1.233360e-03	4	true
116           	smoothSolver	4.246260e-03	3.528200e-04	6	2.292780e-01	1.783660e-02	3	false	GAMG	1.802180e-01	1.351370e-03	4	true
117           	smoothSolver	4.242170e-03	3.524170e-04	6	2.303490e-01	1.758040e-02	3	false	GAMG	1.673690e-01	1.480070e-03	4	true
118           	smoothSolver	4.238980e-03	3.521170e-04	6	2.487150e-01	1.541010e-02	3	false	GAMG	1.665620e-01	1.225090e-03	4	true
119           	smoothSolver	4.234040e-03	3.516430e-04	6	2.551150e-01	1.930070e-02	3	false	GAMG	1.719450e-01	1.537580e-03	4	true
120           	smoothSolver	4.230700e-03	3.512660e-04	6	2.597570e-01	2.143480e-02	3	false	GAMG	1.893660e-01	1.316710e-03	4	true
121           	smoothSolver	4.226130e-03	3.508220e-04	6	2.354130e-01	1.914990e-02	3	false	GAMG	1.668060e-01	9.015070e-04	5	true
122           	smoothSolver	4.221680e-03	3.504460e-04	6	2.603740e-01	1.808980e-02	3	false	GAMG	1.818790e-01	1.578660e-03	4	true
123           	smoothSolver	4.218510e-03	3.500880e-04	6	2.559090e-01	1.772350e-02	3	false	GAMG	1.827480e-01	1.200350e-03	4	true
124           	smoothSolver	4.213480e-03	3.496740e-04	6	2.229300e-01	1.837010e-02	3	false	GAMG	1.693100e-01	1.167930e-03	4	true
125           	smoothSolver	4.209390e-03	3.492220e-04	6	2.592260e-01	1.928260e-02	3	false	GAMG	1.812130e-01	1.489290e-03	4	true
126           	smoothSolver	4.205310e-03	3.488550e-04	6	2.700440e-01	1.961500e-02	3	false	GAMG	1.929760e-01	1.188880e-03	5	true
127           	smoothSolver	4.201340e-03	3.484080e-04	6	2.654960e-01	2.134080e-02	3	false	GAMG	1.728060e-01	1.298450e-03	4	true
128           	smoothSolver	4.197770e-03	3.481360e-04	6	2.702290e-01	2.129280e-02	3	false	GAMG	1.744480e-01	5.421290e-04	6	true
129           	smoothSolver	4.193570e-03	3.477280e-04	6	2.925990e-01	1.994560e-02	3	false	GAMG	1.983050e-01	1.371540e-03	4	true
130           	smoothSolver	4.187780e-03	3.472640e-04	6	2.938340e-01	2.163030e-02	3	false	GAMG	1.825410e-01	1.023210e-03	5	true
131           	smoothSolver	4.184820e-03	3.468560e-04	6	2.902940e-01	2.290860e-02	3	false	GAMG	1.807490e-01	1.102430e-03	5	true
132           	smoothSolver	4.180290e-03	3.464290e-04	6	3.044030e-01	2.508870e-02	3	false	GAMG	1.585860e-01	1.536430e-03	4	true
133           	smoothSolver	4.176870e-03	3.460020e-04	6	3.203340e-01	2.521960e-02	3	false	GAMG	1.607370e-01	1.193000e-03	5	true
134           	smoothSolver	4.171860e-03	3.454970e-04	6	3.225280e-01	2.571010e-02	3	false	GAMG	1.496560e-01	1.161230e-03	5	true
135           	smoothSolver	4.164860e-03	3.449370e-04	6	3.230150e-01	2.318810e-02	3	false	GAMG	1.558660e-01	1.376490e-03	5	true
136           	smoothSolver	4.163290e-03	3.446710e-04	6	3.511620e-01	2.790240e-02	3	false	GAMG	1.771280e-01	7.490590e-04	6	true
137           	smoothSolver	4.153330e-03	3.439660e-04	6	3.480680e-01	2.238250e-02	3	false	GAMG	2.054960e-01	1.311450e-03	4	true
138           	smoothSolver	4.149780e-03	3.434220e-04	6	3.303780e-01	2.296050e-02	3	false	GAMG	2.055690e-01	1.482090e-03	4	true
139           	smoothSolver	4.144810e-03	3.429650e-04	6	3.284210e-01	2.068480e-02	3	false	GAMG	2.123280e-01	1.827890e-03	4	true
140           	smoothSolver	4.139010e-03	3.424500e-04	6	3.374340e-01	2.616090e-02	3	false	GAMG	2.259700e-01	1.710450e-03	4	true
141           	smoothSolver	4.131380e-03	3.418120e-04	6	3.349720e-01	2.148600e-02	3	false	GAMG	2.132940e-01	1.775580e-03	4	true
142           	smoothSolver	4.123830e-03	3.411000e-04	6	3.165280e-01	2.613000e-02	3	false	GAMG	1.918350e-01	1.768540e-03	4	true
143           	smoothSolver	4.119050e-03	3.405190e-04	6	3.162440e-01	2.320700e-02	3	false	GAMG	1.731200e-01	1.628170e-03	4	true
144           	smoothSolver	4.112310e-03	3.399160e-04	6	3.326940e-01	2.641090e-02	3	false	GAMG	1.945760e-01	1.394820e-03	4	true
145           	smoothSolver	4.105620e-03	3.393540e-04	6	3.487370e-01	2.699510e-02	3	false	GAMG	1.903170e-01	1.623110e-03	4	true
146           	smoothSolver	4.098180e-03	3.386820e-04	6	3.677750e-01	2.326730e-02	3	false	GAMG	1.974910e-01	1.710650e-03	4	true
147           	smoothSolver	4.094540e-03	3.382650e-04	6	3.516920e-01	2.508240e-02	3	false	GAMG	2.166130e-01	1.992220e-03	4	true
148           	smoothSolver	4.087660e-03	3.376090e-04	6	3.855180e-01	2.730360e-02	3	false	GAMG	2.264670e-01	1.856640e-03	4	true
149           	smoothSolver	4.083100e-03	3.371230e-04	6	3.472530e-01	2.867880e-02	3	false	GAMG	2.018990e-01	9.490650e-04	5	true
150           	smoothSolver	4.074190e-03	3.364290e-04	6	3.729300e-01	2.329220e-02	3	false	GAMG	1.990200e-01	1.451620e-03	4	true
151           	smoothSolver	4.072860e-03	3.360990e-04	6	3.752220e-01	2.540250e-02	3	false	GAMG	2.318140e-01	1.998610e-03	4	true
152           	smoothSolver	4.064610e-03	3.354540e-04	6	3.668140e-01	2.385050e-02	3	false	GAMG	1.944580e-01	1.623210e-03	4	true
153           	smoothSolver	4.059120e-03	3.348750e-04	6	3.744270e-01	2.641940e-02	3	false	GAMG	1.947430e-01	1.817560e-03	4	true
154           	smoothSolver	4.054350e-03	3.343710e-04	6	3.692730e-01	2.678860e-02	3	false	GAMG	2.159320e-01	1.915240e-03	4	true
155           	smoothSolver	4.046440e-03	3.337320e-04	6	3.860060e-01	3.170380e-02	3	false	GAMG	2.279280e-01	2.047520e-03	4	true
156           	smoothSolver	4.037570e-03	3.329280e-04	6	3.953450e-01	3.398540e-02	3	false	GAMG	2.010910e-01	1.876710e-03	4	true
157           	smoothSolver	4.032890e-03	3.324050e-04	6	3.893980e-01	3.243390e-02	3	false	GAMG	2.172710e-01	1.813640e-03	4	true
158           	smoothSolver	4.025280e-03	3.317400e-04	6	3.966080e-01	3.542090e-02	3	false	GAMG	2.322360e-01	1.429750e-03	5	true
159           	smoothSolver	4.017780e-03	3.309740e-04	6	3.619350e-01	3.101380e-02	3	false	GAMG	2.274020e-01	2.096440e-03	4	true
160           	smoothSolver	4.009870e-03	3.302680e-04	6	3.503840e-01	3.193870e-02	3	false	GAMG	1.764440e-01	1.729560e-03	4	true
161           	smoothSolver	4.005930e-03	3.297740e-04	6	3.601860e-01	3.090530e-02	3	false	GAMG	1.826160e-01	1.529010e-03	4	true
162           	smoothSolver	3.995900e-03	3.290300e-04	6	3.697740e-01	2.753030e-02	3	false	GAMG	1.859030e-01	1.414910e-03	4	true
163           	smoothSolver	3.986280e-03	3.282640e-04	6	3.459060e-01	2.893280e-02	3	false	GAMG	1.997340e-01	1.268610e-03	5	true
164           	smoothSolver	3.979900e-03	3.275590e-04	6	3.576900e-01	2.999670e-02	3	false	GAMG	1.962330e-01	1.267800e-03	5	true
165           	smoothSolver	3.973230e-03	3.269470e-04	6	3.532540e-01	2.431040e-02	3	false	GAMG	2.126630e-01	1.693760e-03	4	true
166           	smoothSolver	3.966960e-03	3.262980e-04	6	3.669120e-01	3.199610e-02	3	false	GAMG	2.335190e-01	2.092180e-03	4	true
167           	smoothSolver	3.961440e-03	3.257790e-04	6	3.686310e-01	2.810220e-02	3	false	GAMG	2.123420e-01	1.355580e-03	5	true
168           	smoothSolver	3.954940e-03	3.251760e-04	6	3.687640e-01	2.736100e-02	3	false	GAMG	2.243510e-01	2.175470e-03	4	true
169           	smoothSolver	3.945240e-03	3.244620e-04	6	3.712800e-01	2.798600e-02	3	false	GAMG	2.056590e-01	1.031010e-03	5	true
170           	smoothSolver	3.938760e-03	3.237840e-04	6	3.858920e-01	2.751320e-02	3	false	GAMG	1.986290e-01	1.638220e-03	5	true
171           	smoothSolver	3.927270e-03	3.228190e-04	6	4.239570e-01	2.926100e-02	3	false	GAMG	2.061790e-01	1.062160e-03	5	true
172           	smoothSolver	3.921290e-03	3.222140e-04	6	3.552930e-01	2.508020e-02	3	false	GAMG	2.054840e-01	9.978360e-04	5	true
173           	smoothSolver	3.915480e-03	3.216700e-04	6	3.482120e-01	2.868400e-02	3	false	GAMG	2.181010e-01	1.121930e-03	5	true
174           	smoothSolver	3.911610e-03	3.212120e-04	6	3.771860e-01	2.810080e-02	3	false	GAMG	2.350680e-01	1.183000e-03	5	true
175           	smoothSolver	3.902480e-03	3.204220e-04	6	3.712870e-01	2.734220e-02	3	false	GAMG	2.342190e-01	1.471520e-03	5	true
176           	smoothSolver	3.894350e-03	3.197570e-04	6	3.609530e-01	2.603470e-02	3	false	GAMG	2.125030e-01	1.446410e-03	5	true
177           	smoothSolver	3.886670e-03	3.190650e-04	6	3.837920e-01	2.793880e-02	3	false	GAMG	2.040580e-01	1.936930e-03	4	true
178           	smoothSolver	3.882150e-03	3.183820e-04	6	3.945690e-01	3.003600e-02	3	false	GAMG	1.939570e-01	1.623450e-03	4	true
179           	smoothSolver	3.873640e-03	3.177730e-04	6	3.883920e-01	2.972240e-02	3	false	GAMG	1.857960e-01	1.574210e-03	4	true
180           	smoothSolver	3.864640e-03	3.170370e-04	6	4.127410e-01	3.610260e-02	3	false	GAMG	1.984540e-01	1.065800e-03	5	true
181           	smoothSolver	3.857650e-03	3.162870e-04	6	4.056810e-01	3.134000e-02	3	false	GAMG	1.775660e-01	9.576090e-04	5	true
182           	smoothSolver	3.843370e-03	3.152250e-04	6	4.342800e-01	3.712240e-02	3	false	GAMG	1.965860e-01	1.953850e-03	4	true
183           	smoothSolver	3.837160e-03	3.145660e-04	6	4.190190e-01	3.414780e-02	3	false	GAMG	2.006190e-01	1.603870e-03	5	true
184           	smoothSolver	3.828250e-03	3.137540e-04	6	4.174680e-01	3.336430e-02	3	false	GAMG	2.146080e-01	2.047720e-03	4	true
185           	smoothSolver	3.822610e-03	3.132000e-04	6	4.039070e-01	2.816790e-02	3	false	GAMG	2.140350e-01	2.133200e-03	5	true
186           	smoothSolver	3.813340e-03	3.124850e-04	6	3.967200e-01	3.199210e-02	3	false	GAMG	2.263490e-01	1.904570e-03	5	true
187           	smoothSolver	3.807420e-03	3.117130e-04	6	4.084520e-01	2.917570e-02	3	false	GAMG	1.993390e-01	1.612590e-03	5	true
188           	smoothSolver	3.798250e-03	3.110550e-04	6	4.176960e-01	3.383820e-02	3	false	GAMG	2.118410e-01	9.236810e-04	5	true
189           	smoothSolver	3.787870e-03	3.102770e-04	6	4.072380e-01	3.707920e-02	3	false	GAMG	1.913540e-01	1.049610e-03	5	true
190           	smoothSolver	3.782080e-03	3.095780e-04	6	4.425700e-01	3.243220e-02	3	false	GAMG	1.904970e-01	1.195670e-03	5	true
191           	smoothSolver	3.772880e-03	3.087630e-04	6	4.532880e-01	3.453480e-02	3	false	GAMG	1.941310e-01	1.919850e-03	4	true
192           	smoothSolver	3.761980e-03	3.078990e-04	6	4.484540e-01	3.381050e-02	3	false	GAMG	2.326110e-01	2.265610e-03	4	true
193           	smoothSolver	3.755520e-03	3.072110e-04	6	4.382510e-01	2.753210e-02	3	false	GAMG	2.290560e-01	1.228950e-03	5	true
194           	smoothSolver	3.748110e-03	3.065730e-04	6	3.900140e-01	2.873650e-02	3	false	GAMG	2.061260e-01	1.783930e-03	4	true
195           	smoothSolver	3.743400e-03	3.059580e-04	6	3.663350e-01	2.933500e-02	3	false	GAMG	2.019310e-01	1.567880e-03	5	true
196           	smoothSolver	3.737530e-03	3.054570e-04	6	3.742540e-01	2.963220e-02	3	false	GAMG	2.397520e-01	1.768020e-03	5	true
197           	smoothSolver	3.727120e-03	3.047030e-04	6	4.282290e-01	3.533550e-02	3	false	GAMG	2.330990e-01	2.130810e-03	4	true
198           	smoothSolver	3.709180e-03	3.034830e-04	6	4.010950e-01	3.176140e-02	3	false	GAMG	2.539940e-01	2.387340e-03	4	true
199           	smoothSolver	3.704790e-03	3.027930e-04	6	4.434420e-01	2.957430e-02	3	false	GAMG	2.688750e-01	1.553520e-03	5	true
200           	smoothSolver	3.699470e-03	3.021030e-04	6	3.835340e-01	2.322010e-02	3	false	GAMG	2.360700e-01	1.944900e-03	4	true
201           	smoothSolver	3.691030e-03	3.015020e-04	6	4.420650e-01	2.919780e-02	3	false	GAMG	2.664130e-01	2.175610e-03	4	true
202           	smoothSolver	3.687170e-03	3.009030e-04	6	4.439860e-01	3.032810e-02	3	false	GAMG	2.410370e-01	1.976100e-03	4	true
203           	smoothSolver	3.674730e-03	3.001280e-04	6	4.550470e-01	3.239410e-02	3	false	GAMG	2.379440e-01	2.265420e-03	4	true
204           	smoothSolver	3.665400e-03	2.992180e-04	6	4.789990e-01	3.887410e-02	3	false	GAMG	2.389830e-01	1.056640e-03	5	true
205           	smoothSolver	3.655680e-03	2.983200e-04	6	4.666020e-01	3.765700e-02	3	false	GAMG	2.456610e-01	1.132240e-03	5	true
206           	smoothSolver	3.646260e-03	2.976790e-04	6	4.687360e-01	3.685290e-02	3	false	GAMG	2.377430e-01	2.031970e-03	4	true
207           	smoothSolver	3.638820e-03	2.970040e-04	6	4.571140e-01	3.150020e-02	3	false	GAMG	2.366570e-01	2.225010e-03	4	true
208           	smoothSolver	3.630380e-03	2.962710e-04	6	4.645040e-01	3.963830e-02	3	false	GAMG	2.531880e-01	1.504400e-03	5	true
209           	smoothSolver	3.620950e-03	2.954660e-04	6	4.345650e-01	3.519340e-02	3	false	GAMG	2.172530e-01	2.133300e-03	4	true
210           	smoothSolver	3.615330e-03	2.946200e-04	6	4.534150e-01	3.082340e-02	3	false	GAMG	2.208010e-01	2.197740e-03	5	true
211           	smoothSolver	3.606710e-03	2.941120e-04	6	4.243160e-01	2.740900e-02	3	false	GAMG	2.457680e-01	1.902030e-03	5	true
212           	smoothSolver	3.597570e-03	2.933900e-04	6	4.186720e-01	2.918050e-02	3	false	GAMG	2.047020e-01	9.973840e-04	5	true
213           	smoothSolver	3.596110e-03	2.929800e-04	6	4.361580e-01	2.583410e-02	3	false	GAMG	2.206330e-01	1.778810e-03	5	true
214           	smoothSolver	3.586720e-03	2.921110e-04	6	4.131220e-01	2.654260e-02	3	false	GAMG	2.248790e-01	2.142080e-03	4	true
215           	smoothSolver	3.575610e-03	2.912300e-04	6	4.205840e-01	2.689970e-02	3	false	GAMG	2.641160e-01	2.387540e-03	4	true
216           	smoothSolver	3.568900e-03	2.904270e-04	6	4.181790e-01	3.065300e-02	3	false	GAMG	2.527040e-01	1.781880e-03	5	true
217           	smoothSolver	3.559030e-03	2.898610e-04	6	4.082470e-01	2.681910e-02	3	false	GAMG	2.213040e-01	1.865810e-03	5	true
218           	smoothSolver	3.552760e-03	2.892260e-04	6	4.228000e-01	3.100900e-02	3	false	GAMG	2.485590e-01	1.393050e-03	5	true
219           	smoothSolver	3.543590e-03	2.884500e-04	6	4.719810e-01	3.643230e-02	3	false	GAMG	2.524870e-01	1.976240e-03	5	true
220           	smoothSolver	3.535230e-03	2.874960e-04	6	4.387920e-01	3.697510e-02	3	false	GAMG	2.438440e-01	1.575140e-03	5	true
221           	smoothSolver	3.528760e-03	2.868650e-04	6	4.528350e-01	3.448970e-02	3	false	GAMG	2.411640e-01	2.115550e-03	4	true
222           	smoothSolver	3.520610e-03	2.862340e-04	6	4.210650e-01	3.305180e-02	3	false	GAMG	2.401280e-01	1.624750e-03	5	true
223           	smoothSolver	3.516420e-03	2.856780e-04	6	3.967910e-01	3.358850e-02	3	false	GAMG	2.333410e-01	1.995850e-03	5	true
224           	smoothSolver	3.502580e-03	2.847260e-04	6	4.045390e-01	2.978840e-02	3	false	GAMG	2.143430e-01	1.390110e-03	5	true
225           	smoothSolver	3.493010e-03	2.840840e-04	6	4.336360e-01	2.887730e-02	3	false	GAMG	2.094370e-01	1.213680e-03	5	true
226           	smoothSolver	3.485130e-03	2.832580e-04	6	4.467620e-01	3.225010e-02	3	false	GAMG	1.783330e-01	9.061210e-04	5	true
227           	smoothSolver	3.478440e-03	2.824500e-04	6	4.091780e-01	3.008670e-02	3	false	GAMG	1.669420e-01	8.355470e-04	5	true
228           	smoothSolver	3.468010e-03	2.815330e-04	6	4.524340e-01	2.958400e-02	3	false	GAMG	2.014750e-01	1.841610e-03	4	true
229           	smoothSolver	3.461990e-03	2.808770e-04	6	4.423360e-01	3.346720e-02	3	false	GAMG	2.046340e-01	1.307720e-03	5	true
230           	smoothSolver	3.444730e-03	2.795630e-04	6	4.344360e-01	3.037710e-02	3	false	GAMG	1.864410e-01	1.738910e-03	4	true
231           	smoothSolver	3.435770e-03	2.788730e-04	6	4.683720e-01	3.301830e-02	3	false	GAMG	1.974570e-01	9.836160e-04	5	true
232           	smoothSolver	3.428150e-03	2.780550e-04	6	4.577740e-01	3.116990e-02	3	false	GAMG	1.990430e-01	1.835190e-03	4	true