# Solver information
# Time        	U_solver      	Ux_initial    	Ux_final      	Ux_iters      	Uy_initial    	Uy_final      	Uy_iters      	U_converged   	p_solver      	p_initial     	p_final       	p_iters       	p_converged   
1             	smoothSolver	0.000000e+00	0.000000e+00	0	0.000000e+00	0.000000e+00	0	false	GAMG	9.999970e-01	6.475550e-03	11	true
2             	smoothSolver	8.102370e-02	7.871350e-03	7	1.000000e+00	5.220250e-02	2	false	GAMG	1.000000e+00	8.294070e-03	5	true
3             	smoothSolver	2.369840e-02	1.727990e-03	3	5.304040e-01	5.039510e-02	2	false	GAMG	2.127580e-01	1.499580e-03	6	true
4             	smoothSolver	1.622790e-02	1.255060e-03	6	4.434360e-01	3.235610e-02	3	false	GAMG	1.639190e-01	9.040290e-04	6	true
5             	smoothSolver	1.214260e-02	1.164580e-03	6	4.444650e-01	2.997910e-02	4	false	GAMG	1.561430e-01	9.327850e-04	5	true
6             	smoothSolver	9.771940e-03	8.478960e-04	7	4.847160e-01	3.911880e-02	4	false	GAMG	1.368090e-01	1.175650e-03	5	true
7             	smoothSolver	8.088730e-03	7.749650e-04	7	4.520430e-01	4.254350e-02	4	false	GAMG	1.250620e-01	8.896420e-04	5	true
8             	smoothSolver	6.856260e-03	5.553640e-04	8	4.015880e-01	3.162760e-02	5	false	GAMG	1.278140e-01	1.186180e-03	6	true
9             	smoothSolver	6.095770e-03	5.280570e-04	8	3.448120e-01	3.129490e-02	5	false	GAMG	1.163370e-01	8.813840e-04	7	true
10            	smoothSolver	5.426510e-03	5.054650e-04	8	2.931440e-01	2.181450e-02	6	false	GAMG	1.062010e-01	9.037850e-04	6	true
11            	smoothSolver	4.886150e-03	4.820420e-04	8	2.727490e-01	2.129120e-02	6	false	GAMG	1.046980e-01	9.265770e-04	8	true
12            	smoothSolver	4.494950e-03	3.649490e-04	9	2.382050e-01	1.994270e-02	6	false	GAMG	9.154490e-02	9.125590e-04	8	true
13            	smoothSolver	4.209710e-03	3.581190e-04	9	2.236070e-01	2.067340e-02	6	false	GAMG	8.150120e-02	7.961500e-04	13	true
14            	smoothSolver	3.925030e-03	3.499420e-04	9	1.950190e-01	1.899510e-02	6	false	GAMG	7.676010e-02	7.632880e-04	11	true
15            	smoothSolver	3.696480e-03	3.415300e-04	9	1.758140e-01	1.383520e-02	7	false	GAMG	7.829880e-02	7.312470e-04	11	true
16            	smoothSolver	3.528360e-03	3.368400e-04	9	1.621540e-01	1.312490e-02	7	false	GAMG	7.817160e-02	7.555560e-04	9	true
17            	smoothSolver	3.372430e-03	3.313970e-04	9	1.410300e-01	1.216740e-02	7	false	GAMG	7.587110e-02	7.237770e-04	13	true
18            	smoothSolver	3.231850e-03	2.569410e-04	10	1.350500e-01	1.203770e-02	7	false	GAMG	8.834110e-02	8.684690e-04	13	true
19            	smoothSolver	3.152080e-03	2.537830e-04	10	1.282210e-01	1.188100e-02	7	false	GAMG	8.450190e-02	8.264670e-04	19	true
20            	smoothSolver	3.108960e-03	2.512430e-04	10	1.250580e-01	1.154480e-02	7	false	GAMG	8.674610e-02	8.634790e-04	19	true
21            	smoothSolver	3.068210e-03	2.489840e-04	10	1.162310e-01	1.101390e-02	7	false	GAMG	8.764750e-02	8.466210e-04	21	true
22            	smoothSolver	3.020490e-03	2.462540e-04	10	1.061660e-01	8.463690e-03	8	false	GAMG	8.809790e-02	8.568430e-04	19	true
23            	smoothSolver	2.979480e-03	2.437510e-04	10	1.013230e-01	8.628430e-03	8	false	GAMG	1.008920e-01	9.673800e-04	15	true
24            	smoothSolver	2.957930e-03	2.425710e-04	10	9.930990e-02	8.607340e-03	8	false	GAMG	9.843980e-02	9.575560e-04	13	true
25            	smoothSolver	2.931120e-03	2.412390e-04	10	9.454670e-02	8.402830e-03	8	false	GAMG	9.189850e-02	9.187230e-04	13	true
26            	smoothSolver	2.899720e-03	2.398540e-04	10	9.258770e-02	8.545410e-03	8	false	GAMG	8.053280e-02	7.749490e-04	19	true
27            	smoothSolver	2.875700e-03	2.385310e-04	10	9.320960e-02	8.451690e-03	8	false	GAMG	8.691950e-02	8.592490e-04	13	true
28            	smoothSolver	2.847280e-03	2.370010e-04	10	8.572610e-02	8.195140e-03	8	false	GAMG	7.334410e-02	7.000370e-04	21	true
29            	smoothSolver	2.819320e-03	2.353170e-04	10	8.641480e-02	8.045220e-03	8	false	GAMG	6.922270e-02	6.540810e-04	19	true
30            	smoothSolver	2.799250e-03	2.342740e-04	10	7.957310e-02	7.857650e-03	8	false	GAMG	6.529140e-02	6.365380e-04	14	true
31            	smoothSolver	2.777090e-03	2.333220e-04	10	7.539540e-02	7.465730e-03	8	false	GAMG	6.019370e-02	5.764530e-04	16	true
32            	smoothSolver	2.754640e-03	2.321460e-04	10	6.923720e-02	5.718850e-03	9	false	GAMG	5.271370e-02	5.258880e-04	15	true
33            	smoothSolver	2.735410e-03	2.311500e-04	10	6.724060e-02	5.582850e-03	9	false	GAMG	5.201080e-02	5.080290e-04	17	true
34            	smoothSolver	2.717750e-03	2.303200e-04	10	6.723390e-02	5.465180e-03	9	false	GAMG	4.775370e-02	4.613680e-04	19	true
35            	smoothSolver	2.700670e-03	2.294240e-04	10	6.327940e-02	5.284430e-03	9	false	GAMG	4.357940e-02	4.126610e-04	20	true
36            	smoothSolver	2.684390e-03	2.284950e-04	10	6.256340e-02	5.110350e-03	9	false	GAMG	4.853540e-02	4.714620e-04	18	true
37            	smoothSolver	2.667390e-03	2.276710e-04	10	5.997210e-02	4.904350e-03	9	false	GAMG	4.060370e-02	4.046090e-04	21	true
38            	smoothSolver	2.653430e-03	2.269430e-04	10	5.820210e-02	4.761900e-03	9	false	GAMG	4.173550e-02	4.037170e-04	18	true
39            	smoothSolver	2.637940e-03	2.261630e-04	10	5.630860e-02	4.711370e-03	9	false	GAMG	3.768270e-02	3.739570e-04	22	true
40            	smoothSolver	2.623740e-03	2.254400e-04	10	5.629920e-02	4.575820e-03	9	false	GAMG	3.749850e-02	3.667400e-04	22	true
41            	smoothSolver	2.611840e-03	2.248770e-04	10	5.435860e-02	4.507430e-03	9	false	GAMG	3.797370e-02	3.638210e-04	22	true
42            	smoothSolver	2.599320e-03	2.243410e-04	10	5.238140e-02	4.356860e-03	9	false	GAMG	3.932760e-02	3.883830e-04	18	true
43            	smoothSolver	2.586550e-03	2.237780e-04	10	5.192640e-02	4.232430e-03	9	false	GAMG	4.335770e-02	4.200080e-04	17	true
44            	smoothSolver	2.575580e-03	2.232740e-04	10	4.958240e-02	4.121720e-03	9	false	GAMG	3.939830e-02	3.861230e-04	22	true
45            	smoothSolver	2.563850e-03	2.227780e-04	10	5.049470e-02	4.138520e-03	9	false	GAMG	3.955890e-02	3.690850e-04	20	true
46            	smoothSolver	2.553730e-03	2.223860e-04	10	5.062520e-02	4.124370e-03	9	false	GAMG	3.950040e-02	3.813750e-04	20	true
47            	smoothSolver	2.542470e-03	2.219250e-04	10	5.029810e-02	4.161930e-03	9	false	GAMG	4.099390e-02	3.871270e-04	20	true
48            	smoothSolver	2.533070e-03	2.215260e-04	10	4.910880e-02	4.173300e-03	9	false	GAMG	3.868960e-02	3.775920e-04	22	true
49            	smoothSolver	2.521650e-03	2.210490e-04	10	4.648020e-02	4.049480e-03	9	false	GAMG	4.087600e-02	3.851460e-04	20	true
50            	smoothSolver	2.511900e-03	2.206180e-04	10	4.548500e-02	3.953780e-03	9	false	GAMG	4.084280e-02	3.936450e-04	22	true
51            	smoothSolver	2.502100e-03	2.202190e-04	10	4.616630e-02	4.017100e-03	9	false	GAMG	4.666520e-02	4.354730e-04	20	true
52            	smoothSolver	2.492870e-03	2.198480e-04	10	4.564710e-02	3.999100e-03	9	false	GAMG	4.470630e-02	4.256500e-04	24	true
53            	smoothSolver	2.483590e-03	2.194840e-04	10	4.608730e-02	3.959540e-03	9	false	GAMG	4.859040e-02	4.628500e-04	22	true
54            	smoothSolver	2.474150e-03	2.190850e-04	10	4.416370e-02	3.892020e-03	9	false	GAMG	5.036790e-02	4.764460e-04	20	true
55            	smoothSolver	2.464600e-03	2.186790e-04	10	4.341260e-02	3.807390e-03	9	false	GAMG	4.936900e-02	4.731320e-04	22	true
56            	smoothSolver	2.454970e-03	2.182630e-04	10	4.429120e-02	3.877030e-03	9	false	GAMG	5.370130e-02	5.355720e-04	20	true
57            	smoothSolver	2.446080e-03	2.178910e-04	10	4.248120e-02	3.790910e-03	9	false	GAMG	5.597630e-02	5.530280e-04	20	true
58            	smoothSolver	2.437530e-03	2.175320e-04	10	4.016210e-02	3.687590e-03	9	false	GAMG	5.327270e-02	5.270420e-04	20	true
59            	smoothSolver	2.428570e-03	2.171320e-04	10	3.890730e-02	3.648000e-03	9	false	GAMG	5.150980e-02	4.893300e-04	25	true
60            	smoothSolver	2.419470e-03	2.167440e-04	10	4.007970e-02	3.633060e-03	9	false	GAMG	5.726310e-02	5.527420e-04	20	true
61            	smoothSolver	2.411050e-03	2.163930e-04	10	4.045880e-02	3.582070e-03	9	false	GAMG	5.696920e-02	5.660930e-04	21	true
62            	smoothSolver	2.402380e-03	2.160450e-04	10	3.750990e-02	3.485520e-03	9	false	GAMG	5.420450e-02	5.194530e-04	25	true
63            	smoothSolver	2.393940e-03	2.156990e-04	10	3.816380e-02	3.418310e-03	9	false	GAMG	6.752290e-02	6.672120e-04	12	true
64            	smoothSolver	2.385570e-03	2.153300e-04	10	3.731640e-02	3.336700e-03	9	false	GAMG	6.930450e-02	6.910120e-04	22	true
65            	smoothSolver	2.376640e-03	2.149600e-04	10	3.732840e-02	3.253080e-03	9	false	GAMG	7.734030e-02	7.517700e-04	20	true
66            	smoothSolver	2.368070e-03	2.145790e-04	10	3.610660e-02	3.200200e-03	9	false	GAMG	7.900330e-02	7.678550e-04	19	true
67            	smoothSolver	2.360010e-03	2.142210e-04	10	3.626910e-02	3.124220e-03	9	false	GAMG	9.417980e-02	9.201330e-04	13	true
68            	smoothSolver	2.351240e-03	2.138380e-04	10	3.693690e-02	3.115660e-03	9	false	GAMG	8.926390e-02	8.789350e-04	22	true
69            	smoothSolver	2.342960e-03	2.134600e-04	10	3.473610e-02	2.974050e-03	9	false	GAMG	1.048190e-01	1.046010e-03	16	true
70            	smoothSolver	2.334380e-03	2.130830e-04	10	3.354080e-02	2.973670e-03	9	false	GAMG	1.125310e-01	1.072840e-03	17	true
71            	smoothSolver	2.326310e-03	2.127040e-04	10	3.421870e-02	3.021230e-03	9	false	GAMG	1.095900e-01	1.040450e-03	24	true
72            	smoothSolver	2.317940e-03	2.123190e-04	10	3.343590e-02	2.831790e-03	9	false	GAMG	1.334160e-01	1.257880e-03	12	true
73            	smoothSolver	2.309210e-03	2.119070e-04	10	3.321300e-02	2.829660e-03	9	false	GAMG	1.421280e-01	1.415160e-03	14	true
74            	smoothSolver	2.301030e-03	2.115190e-04	10	3.330370e-02	2.793470e-03	9	false	GAMG	1.555750e-01	1.513820e-03	16	true
75            	smoothSolver	2.292630e-03	2.111160e-04	10	3.272930e-02	2.745800e-03	9	false	GAMG	1.616220e-01	1.560510e-03	10	true
76            	smoothSolver	2.284410e-03	2.107130e-04	10	3.228590e-02	2.747500e-03	9	false	GAMG	1.336670e-01	1.319600e-03	18	true
77            	smoothSolver	2.275970e-03	2.102980e-04	10	3.213260e-02	2.691680e-03	9	false	GAMG	1.327950e-01	1.287510e-03	15	true
78            	smoothSolver	2.267060e-03	2.098520e-04	10	3.134060e-02	2.493250e-03	9	false	GAMG	1.168810e-01	1.110780e-03	15	true
79            	smoothSolver	2.258820e-03	2.094420e-04	10	3.165980e-02	2.535140e-03	9	false	GAMG	1.145360e-01	1.101410e-03	13	true
80            	smoothSolver	2.250240e-03	2.090130e-04	10	3.130590e-02	3.087730e-03	8	false	GAMG	1.145410e-01	1.092500e-03	7	true
81            	smoothSolver	2.241850e-03	2.085670e-04	10	3.102340e-02	3.026100e-03	8	false	GAMG	1.093800e-01	1.087650e-03	14	true
82            	smoothSolver	2.233420e-03	2.081320e-04	10	3.116360e-02	3.084470e-03	8	false	GAMG	1.124260e-01	1.117830e-03	10	true
83            	smoothSolver	2.224830e-03	2.076800e-04	10	3.148530e-02	3.063580e-03	8	false	GAMG	1.006800e-01	9.762490e-04	14	true
84            	smoothSolver	2.216480e-03	2.072430e-04	10	3.181940e-02	3.016280e-03	8	false	GAMG	9.027130e-02	9.009350e-04	17	true
85            	smoothSolver	2.208160e-03	2.067930e-04	10	3.089900e-02	2.946930e-03	8	false	GAMG	8.295730e-02	8.080550e-04	11	true
86            	smoothSolver	2.199690e-03	2.063440e-04	10	2.866070e-02	2.817730e-03	8	false	GAMG	7.774130e-02	7.698140e-04	15	true
87            	smoothSolver	2.190950e-03	2.058600e-04	10	2.941550e-02	2.739880e-03	8	false	GAMG	7.851000e-02	7.493980e-04	16	true
88            	smoothSolver	2.182360e-03	2.053710e-04	10	2.906830e-02	2.740520e-03	8	false	GAMG	7.458730e-02	7.107320e-04	14	true
89            	smoothSolver	2.173670e-03	2.048820e-04	10	2.997700e-02	2.745720e-03	8	false	GAMG	7.839860e-02	7.380710e-04	12	true
90            	smoothSolver	2.164990e-03	2.043810e-04	10	2.825100e-02	2.553270e-03	8	false	GAMG	7.746690e-02	7.602470e-04	11	true
91            	smoothSolver	2.156490e-03	2.038850e-04	10	2.742380e-02	2.547020e-03	8	false	GAMG	7.406290e-02	7.157100e-04	9	true
92            	smoothSolver	2.147780e-03	2.033770e-04	10	2.760120e-02	2.491090e-03	8	false	GAMG	7.388970e-02	7.105020e-04	10	true
93            	smoothSolver	2.139170e-03	2.028680e-04	10	2.690500e-02	2.426930e-03	8	false	GAMG	7.275370e-02	7.268870e-04	10	true
94            	smoothSolver	2.130370e-03	2.023410e-04	10	2.726280e-02	2.502770e-03	8	false	GAMG	7.700940e-02	7.668820e-04	5	true
95            	smoothSolver	2.121960e-03	2.018260e-04	10	2.787170e-02	2.403570e-03	8	false	GAMG	7.380510e-02	7.243180e-04	12	true
96            	smoothSolver	2.113270e-03	2.013110e-04	10	2.859600e-02	2.469240e-03	8	false	GAMG	7.640040e-02	7.591380e-04	9	true
97            	smoothSolver	2.104760e-03	2.007880e-04	10	2.584440e-02	2.283570e-03	8	false	GAMG	6.832350e-02	6.765850e-04	17	true
98            	smoothSolver	2.096190e-03	2.002560e-04	10	2.581850e-02	2.270540e-03	8	false	GAMG	6.149290e-02	6.004960e-04	13	true
99            	smoothSolver	2.087780e-03	1.997320e-04	10	2.516070e-02	2.270860e-03	8	false	GAMG	6.820180e-02	6.554760e-04	5	true
100           	smoothSolver	2.079070e-03	1.991870e-04	10	2.525060e-02	2.182870e-03	8	false	GAMG	6.203800e-02	6.108060e-04	16	true
101           	smoothSolver	2.070470e-03	1.986380e-04	10	2.562860e-02	2.249150e-03	8	false	GAMG	6.157840e-02	5.093970e-04	5	true
102           	smoothSolver	2.062020e-03	1.980910e-04	10	2.608690e-02	2.241860e-03	8	false	GAMG	6.349080e-02	5.949990e-04	5	true
103           	smoothSolver	2.053580e-03	1.975430e-04	10	2.670880e-02	2.185910e-03	8	false	GAMG	6.036390e-02	5.870170e-04	7	true
104           	smoothSolver	2.045020e-03	1.969900e-04	10	2.648580e-02	2.221410e-03	8	false	GAMG	5.771950e-02	4.990280e-04	5	true
105           	smoothSolver	2.036310e-03	1.964120e-04	10	2.727360e-02	2.142870e-03	8	false	GAMG	5.348730e-02	5.202390e-04	12	true
106           	smoothSolver	2.027890e-03	1.958630e-04	10	2.766030e-02	2.712680e-03	7	false	GAMG	5.347240e-02	5.059100e-04	9	true
107           	smoothSolver	2.019470e-03	1.953180e-04	10	2.627810e-02	2.129970e-03	8	false	GAMG	5.491140e-02	4.777230e-04	5	true
108           	smoothSolver	2.011080e-03	1.947500e-04	10	2.451490e-02	2.115730e-03	8	false	GAMG	5.636510e-02	5.430050e-04	13	true
109           	smoothSolver	2.002580e-03	1.941810e-04	10	2.659310e-02	2.653400e-03	7	false	GAMG	5.491130e-02	5.465900e-04	7	true
110           	smoothSolver	1.994360e-03	1.936250e-04	10	2.499280e-02	2.119060e-03	8	false	GAMG	5.391740e-02	5.121410e-04	13	true
111           	smoothSolver	1.986060e-03	1.930780e-04	10	2.606690e-02	2.578010e-03	7	false	GAMG	5.286680e-02	5.173800e-04	5	true
112           	smoothSolver	1.977640e-03	1.925040e-04	10	2.577270e-02	2.026590e-03	8	false	GAMG	5.217700e-02	5.022140e-04	7	true
113           	smoothSolver	1.969270e-03	1.919360e-04	10	2.727770e-02	2.702140e-03	7	false	GAMG	5.227690e-02	5.059310e-04	11	true
114           	smoothSolver	1.960990e-03	1.913740e-04	10	2.591450e-02	2.049490e-03	8	false	GAMG	5.231920e-02	5.151460e-04	9	true
115           	smoothSolver	1.952860e-03	1.908160e-04	10	2.510730e-02	2.002660e-03	8	false	GAMG	5.394690e-02	5.386800e-04	7	true
116           	smoothSolver	1.944550e-03	1.902510e-04	10	2.530250e-02	2.492250e-03	7	false	GAMG	4.589260e-02	4.514180e-04	20	true
117           	smoothSolver	1.936490e-03	1.896840e-04	10	2.475760e-02	2.042110e-03	8	false	GAMG	5.025410e-02	4.959020e-04	9	true
118           	smoothSolver	1.928200e-03	1.891060e-04	10	2.334880e-02	1.872040e-03	8	false	GAMG	4.602080e-02	4.599290e-04	13	true
119           	smoothSolver	1.920130e-03	1.885260e-04	10	2.440020e-02	1.980260e-03	8	false	GAMG	5.143260e-02	5.133080e-04	15	true
120           	smoothSolver	1.911990e-03	1.879510e-04	10	2.370850e-02	2.256310e-03	7	false	GAMG	5.159180e-02	4.911970e-04	7	true
121           	smoothSolver	1.903920e-03	1.873840e-04	10	2.465340e-02	2.384670e-03	7	false	GAMG	4.927200e-02	4.789580e-04	15	true
122           	smoothSolver	1.895880e-03	1.868060e-04	10	2.320280e-02	2.189610e-03	7	false	GAMG	4.948530e-02	4.532530e-04	5	true
123           	smoothSolver	1.887810e-03	1.862300e-04	10	2.149220e-02	1.716240e-03	8	false	GAMG	4.753510e-02	4.515910e-04	9	true
124           	smoothSolver	1.879840e-03	1.856520e-04	10	2.196050e-02	2.091720e-03	7	false	GAMG	4.753240e-02	4.405530e-04	5	true
125           	smoothSolver	1.871950e-03	1.850870e-04	10	2.378850e-02	2.336270e-03	7	false	GAMG	4.841840e-02	4.713850e-04	13	true
126           	smoothSolver	1.864200e-03	1.845300e-04	10	2.367270e-02	2.196040e-03	7	false	GAMG	4.523380e-02	4.361370e-04	11	true
127           	smoothSolver	1.856540e-03	1.839670e-04	10	2.266290e-02	2.103160e-03	7	false	GAMG	4.341780e-02	3.968270e-04	6	true
128           	smoothSolver	1.848850e-03	1.834130e-04	10	2.242120e-02	2.150180e-03	7	false	GAMG	4.347610e-02	4.326380e-04	9	true
129           	smoothSolver	1.840960e-03	1.828390e-04	10	2.339280e-02	2.130270e-03	7	false	GAMG	4.716650e-02	4.253990e-04	5	true
130           	smoothSolver	1.833320e-03	1.822820e-04	10	2.044780e-02	1.698230e-03	8	false	GAMG	3.851470e-02	3.691050e-04	11	true
131           	smoothSolver	1.825650e-03	1.817280e-04	10	2.268110e-02	1.773740e-03	8	false	GAMG	4.815000e-02	3.848750e-04	5	true
132           	smoothSolver	1.818220e-03	1.811810e-04	10	2.163090e-02	1.726740e-03	8	false	GAMG	4.613890e-02	4.392240e-04	7	true
133           	smoothSolver	1.810670e-03	1.806290e-04	10	2.218790e-02	2.169720e-03	7	false	GAMG	4.906170e-02	4.533250e-04	5	true
134           	smoothSolver	1.803310e-03	1.800870e-04	10	2.194160e-02	2.170430e-03	7	false	GAMG	4.620160e-02	4.114140e-04	5	true
135           	smoothSolver	1.795870e-03	1.795400e-04	10	2.122480e-02	2.109020e-03	7	false	GAMG	4.469360e-02	4.404920e-04	7	true
136           	smoothSolver	1.788390e-03	1.440330e-04	11	2.241350e-02	2.127620e-03	7	false	GAMG	5.070870e-02	4.221820e-04	5	true
137           	smoothSolver	1.781210e-03	1.437170e-04	11	2.340730e-02	2.186370e-03	7	false	GAMG	4.577550e-02	3.848390e-04	5	true
138           	smoothSolver	1.773970e-03	1.432900e-04	11	2.374470e-02	2.153910e-03	7	false	GAMG	4.508160e-02	4.127250e-04	5	true
139           	smoothSolver	1.766670e-03	1.428510e-04	11	2.391240e-02	2.158590e-03	7	false	GAMG	4.504630e-02	4.433490e-04	7	true
140           	smoothSolver	1.759590e-03	1.424320e-04	11	2.433440e-02	2.167720e-03	7	false	GAMG	4.201300e-02	3.777950e-04	5	true
141           	smoothSolver	1.752410e-03	1.420000e-04	11	2.361200e-02	2.244310e-03	7	false	GAMG	4.934700e-02	4.183600e-04	5	true
142           	smoothSolver	1.745450e-03	1.415810e-04	11	2.343360e-02	2.195900e-03	7	false	GAMG	4.562850e-02	4.170770e-04	5	true
143           	smoothSolver	1.738360e-03	1.411560e-04	11	2.275090e-02	2.139360e-03	7	false	GAMG	4.361070e-02	4.117100e-04	5	true
144           	smoothSolver	1.731500e-03	1.407350e-04	11	2.116830e-02	1.738020e-03	8	false	GAMG	4.082480e-02	4.052260e-04	12	true
145           	smoothSolver	1.724580e-03	1.403130e-04	11	2.077360e-02	1.665060e-03	8	false	GAMG	4.576830e-02	4.350450e-04	5	true
146           	smoothSolver	1.717760e-03	1.399020e-04	11	2.055210e-02	1.607590e-03	8	false	GAMG	4.384370e-02	4.099960e-04	7	true
147           	smoothSolver	1.711020e-03	1.394940e-04	11	2.098790e-02	2.056260e-03	7	false	GAMG	4.435250e-02	4.319570e-04	4	true
148           	smoothSolver	1.704430e-03	1.390920e-04	11	2.131880e-02	2.005090e-03	7	false	GAMG	4.066730e-02	3.994820e-04	15	true
149           	smoothSolver	1.697800e-03	1.386860e-04	11	1.973540e-02	1.878310e-03	7	false	GAMG	4.205350e-02	3.609730e-04	5	true
150           	smoothSolver	1.691290e-03	1.382850e-04	11	1.905230e-02	1.874790e-03	7	false	GAMG	3.942430e-02	3.681150e-04	5	true
151           	smoothSolver	1.684790e-03	1.378870e-04	11	2.090010e-02	2.054390e-03	7	false	GAMG	3.923000e-02	3.840760e-04	11	true
152           	smoothSolver	1.678390e-03	1.374940e-04	11	2.154530e-02	2.147240e-03	7	false	GAMG	3.987340e-02	3.920780e-04	9	true
153           	smoothSolver	1.672050e-03	1.371020e-04	11	2.053880e-02	1.907830e-03	7	false	GAMG	4.216570e-02	4.190790e-04	4	true
154           	smoothSolver	1.665770e-03	1.367170e-04	11	2.062040e-02	2.011200e-03	7	false	GAMG	4.404900e-02	3.891260e-04	5	true
155           	smoothSolver	1.659660e-03	1.363340e-04	11	2.012270e-02	1.966110e-03	7	false	GAMG	4.087820e-02	3.570960e-04	5	true
156           	smoothSolver	1.653560e-03	1.359540e-04	11	2.046050e-02	1.964440e-03	7	false	GAMG	4.064760e-02	3.844580e-04	5	true
157           	smoothSolver	1.647500e-03	1.355780e-04	11	2.036490e-02	1.887730e-03	7	false	GAMG	4.095130e-02	4.023570e-04	11	true
158           	smoothSolver	1.641620e-03	1.352120e-04	11	1.952340e-02	1.845700e-03	7	false	GAMG	3.969990e-02	3.917590e-04	5	true
159           	smoothSolver	1.635770e-03	1.348480e-04	11	2.002000e-02	1.947220e-03	7	false	GAMG	3.962810e-02	3.957470e-04	5	true
160           	smoothSolver	1.629970e-03	1.344850e-04	11	1.951300e-02	1.927190e-03	7	false	GAMG	3.800340e-02	3.730690e-04	11	true
161           	smoothSolver	1.624280e-03	1.341280e-04	11	1.910920e-02	1.892710e-03	7	false	GAMG	3.636540e-02	3.556560e-04	15	true
162           	smoothSolver	1.618590e-03	1.337710e-04	11	2.070470e-02	1.963540e-03	7	false	GAMG	4.439870e-02	3.846320e-04	5	true
163           	smoothSolver	1.613010e-03	1.334180e-04	11	2.081860e-02	1.976750e-03	7	false	GAMG	4.342450e-02	4.151830e-04	5	true
164           	smoothSolver	1.607500e-03	1.330730e-04	11	1.912170e-02	1.792320e-03	7	false	GAMG	3.745290e-02	3.742580e-04	7	true
165           	smoothSolver	1.602200e-03	1.327370e-04	11	1.884390e-02	1.796830e-03	7	false	GAMG	3.947500e-02	3.562650e-04	6	true
166           	smoothSolver	1.596770e-03	1.323980e-04	11	2.029110e-02	1.908240e-03	7	false	GAMG	4.125460e-02	4.114700e-04	5	true
167           	smoothSolver	1.591370e-03	1.320540e-04	11	1.962560e-02	1.881140e-03	7	false	GAMG	4.481820e-02	3.527100e-04	5	true
168           	smoothSolver	1.586010e-03	1.317130e-04	11	1.889300e-02	1.815300e-03	7	false	GAMG	4.124690e-02	3.649180e-04	5	true
169           	smoothSolver	1.580830e-03	1.313870e-04	11	2.101260e-02	2.002820e-03	7	false	GAMG	4.421390e-02	4.329250e-04	5	true
170           	smoothSolver	1.575600e-03	1.310580e-04	11	2.087930e-02	1.909650e-03	7	false	GAMG	4.208410e-02	4.015740e-04	9	true
171           	smoothSolver	1.570570e-03	1.307410e-04	11	1.984300e-02	1.904020e-03	7	false	GAMG	3.752300e-02	3.721740e-04	7	true
172           	smoothSolver	1.565650e-03	1.304270e-04	11	1.989070e-02	1.935440e-03	7	false	GAMG	4.092950e-02	3.562810e-04	5	true
173           	smoothSolver	1.560550e-03	1.301050e-04	11	1.953520e-02	1.860430e-03	7	false	GAMG	4.191220e-02	3.912780e-04	7	true
174           	smoothSolver	1.555690e-03	1.297960e-04	11	2.056980e-02	1.900890e-03	7	false	GAMG	4.257390e-02	4.179050e-04	5	true
175           	smoothSolver	1.550800e-03	1.294850e-04	11	1.840860e-02	1.810140e-03	7	false	GAMG	3.853540e-02	3.686610e-04	9	true
176           	smoothSolver	1.545910e-03	1.291700e-04	11	1.897610e-02	1.829110e-03	7	false	GAMG	4.248400e-02	3.742890e-04	5	true
177           	smoothSolver	1.541110e-03	1.288630e-04	11	1.894820e-02	1.807390e-03	7	false	GAMG	3.763800e-02	3.757700e-04	10	true
178           	smoothSolver	1.536440e-03	1.285650e-04	11	1.865560e-02	1.806600e-03	7	false	GAMG	3.893760e-02	3.815030e-04	5	true
179           	smoothSolver	1.531740e-03	1.282630e-04	11	1.946380e-02	1.855210e-03	7	false	GAMG	4.201410e-02	4.145310e-04	7	true
180           	smoothSolver	1.527180e-03	1.279690e-04	11	1.942650e-02	1.520330e-03	8	false	GAMG	4.239500e-02	4.112760e-04	5	true
181           	smoothSolver	1.522730e-03	1.276820e-04	11	1.923820e-02	1.840850e-03	7	false	GAMG	3.919530e-02	3.718790e-04	7	true
182           	smoothSolver	1.518260e-03	1.273940e-04	11	2.082240e-02	1.849560e-03	7	false	GAMG	4.189950e-02	3.999490e-04	5	true
183           	smoothSolver	1.513920e-03	1.271150e-04	11	2.084240e-02	1.920540e-03	7	false	GAMG	4.346300e-02	4.286500e-04	7	true
184           	smoothSolver	1.509610e-03	1.268370e-04	11	2.142610e-02	1.916770e-03	7	false	GAMG	5.007630e-02	4.003850e-04	5	true
185           	smoothSolver	1.505410e-03	1.265650e-04	11	2.032370e-02	1.901280e-03	7	false	GAMG	4.828360e-02	3.935160e-04	5	true
186           	smoothSolver	1.501210e-03	1.262990e-04	11	2.182140e-02	1.958040e-03	7	false	GAMG	4.649830e-02	3.787280e-04	5	true
187           	smoothSolver	1.497080e-03	1.260360e-04	11	1.925350e-02	1.505240e-03	8	false	GAMG	4.124220e-02	3.895340e-04	5	true
188           	smoothSolver	1.493060e-03	1.257780e-04	11	2.114580e-02	1.988940e-03	7	false	GAMG	4.564240e-02	4.378300e-04	5	true
189           	smoothSolver	1.489090e-03	1.255240e-04	11	2.044590e-02	1.958760e-03	7	false	GAMG	4.326970e-02	4.107350e-04	7	true
190           	smoothSolver	1.485150e-03	1.252740e-04	11	2.180340e-02	2.099870e-03	7	false	GAMG	4.822280e-02	4.405770e-04	4	true
191           	smoothSolver	1.481250e-03	1.250280e-04	11	2.019390e-02	1.630000e-03	8	false	GAMG	4.090950e-02	3.915540e-04	8	true
192           	smoothSolver	1.477500e-03	1.247850e-04	11	1.852890e-02	1.553950e-03	8	false	GAMG	3.694570e-02	3.246940e-04	5	true
193           	smoothSolver	1.473770e-03	1.245480e-04	11	1.939680e-02	1.516650e-03	8	false	GAMG	4.236470e-02	3.382420e-04	5	true
194           	smoothSolver	1.470060e-03	1.243120e-04	11	1.980090e-02	1.917360e-03	7	false	GAMG	4.141350e-02	4.028680e-04	6	true
195           	smoothSolver	1.466490e-03	1.240830e-04	11	1.967160e-02	1.913570e-03	7	false	GAMG	4.181220e-02	4.005070e-04	6	true
196           	smoothSolver	1.462870e-03	1.238530e-04	11	1.912820e-02	1.838300e-03	7	false	GAMG	4.304030e-02	4.180640e-04	6	true
197           	smoothSolver	1.459350e-03	1.236260e-04	11	2.154150e-02	1.885470e-03	7	false	GAMG	4.577020e-02	3.984430e-04	5	true
198           	smoothSolver	1.455930e-03	1.234070e-04	11	2.025730e-02	1.894140e-03	7	false	GAMG	4.675490e-02	4.533740e-04	5	true
199           	smoothSolver	1.452470e-03	1.231880e-04	11	1.883640e-02	1.806310e-03	7	false	GAMG	4.374670e-02	4.368660e-04	13	true
200           	smoothSolver	1.449080e-03	1.229690e-04	11	2.003090e-02	1.759260e-03	7	false	GAMG	4.633290e-02	3.882750e-04	5	true
201           	smoothSolver	1.445760e-03	1.227560e-04	11	1.919690e-02	1.829240e-03	7	false	GAMG	4.221920e-02	3.626340e-04	5	true
202           	smoothSolver	1.442500e-03	1.225470e-04	11	1.912520e-02	1.796310e-03	7	false	GAMG	4.784450e-02	3.656080e-04	5	true
203           	smoothSolver	1.439310e-03	1.223440e-04	11	1.952040e-02	1.820760e-03	7	false	GAMG	4.912800e-02	3.919940e-04	5	true
204           	smoothSolver	1.436240e-03	1.221460e-04	11	1.989870e-02	1.841040e-03	7	false	GAMG	4.860970e-02	4.676860e-04	4	true
205           	smoothSolver	1.433110e-03	1.219460e-04	11	1.885510e-02	1.806580e-03	7	false	GAMG	4.552240e-02	3.546110e-04	5	true
206           	smoothSolver	1.430040e-03	1.217490e-04	11	1.966420e-02	1.798380e-03	7	false	GAMG	4.665820e-02	4.465980e-04	4	true
207           	smoothSolver	1.427060e-03	1.215570e-04	11	2.026620e-02	1.875220e-03	7	false	GAMG	4.499940e-02	4.318380e-04	5	true
208           	smoothSolver	1.424190e-03	1.213710e-04	11	1.983820e-02	1.843980e-03	7	false	GAMG	4.763200e-02	4.054920e-04	5	true
209           	smoothSolver	1.421310e-03	1.211850e-04	11	1.904850e-02	1.774080e-03	7	false	GAMG	4.069200e-02	4.021890e-04	6	true
210           	smoothSolver	1.418500e-03	1.210020e-04	11	1.987040e-02	1.787520e-03	7	false	GAMG	4.825650e-02	3.572900e-04	5	true
211           	smoothSolver	1.415770e-03	1.208250e-04	11	1.987250e-02	1.909530e-03	7	false	GAMG	4.932600e-02	4.106530e-04	5	true
212           	smoothSolver	1.413050e-03	1.206490e-04	11	1.894980e-02	1.491440e-03	8	false	GAMG	4.724160e-02	4.017260e-04	5	true
213           	smoothSolver	1.410390e-03	1.204760e-04	11	1.937530e-02	1.819290e-03	7	false	GAMG	4.961960e-02	4.477320e-04	5	true
214           	smoothSolver	1.407800e-03	1.203070e-04	11	1.977780e-02	1.856350e-03	7	false	GAMG	4.926020e-02	3.931480e-04	5	true
215           	smoothSolver	1.405260e-03	1.201420e-04	11	2.159090e-02	1.960940e-03	7	false	GAMG	5.102130e-02	4.216950e-04	5	true
216           	smoothSolver	1.402710e-03	1.199780e-04	11	2.192890e-02	1.967440e-03	7	false	GAMG	5.112320e-02	4.152690e-04	5	true
217           	smoothSolver	1.400180e-03	1.198130e-04	11	2.066000e-02	1.965070e-03	7	false	GAMG	4.916600e-02	4.822880e-04	5	true
218           	smoothSolver	1.397690e-03	1.196500e-04	11	2.028460e-02	1.838800e-03	7	false	GAMG	5.158390e-02	4.770490e-04	6	true
219           	smoothSolver	1.395450e-03	1.195070e-04	11	2.155760e-02	1.881950e-03	7	false	GAMG	5.440340e-02	5.281420e-04	4	true
220           	smoothSolver	1.393040e-03	1.193530e-04	11	2.020890e-02	1.863110e-03	7	false	GAMG	5.747160e-02	5.508090e-04	5	true
221           	smoothSolver	1.390860e-03	1.192080e-04	11	1.959070e-02	1.856390e-03	7	false	GAMG	5.154470e-02	4.636870e-04	6	true
222           	smoothSolver	1.388520e-03	1.190570e-04	11	1.990100e-02	1.876100e-03	7	false	GAMG	5.681400e-02	5.546380e-04	4	true
223           	smoothSolver	1.386460e-03	1.189230e-04	11	2.139660e-02	2.041880e-03	7	false	GAMG	5.793840e-02	4.565190e-04	5	true
224           	smoothSolver	1.384260e-03	1.187820e-04	11	2.122350e-02	2.013490e-03	7	false	GAMG	5.384130e-02	4.651210e-04	5	true
225           	smoothSolver	1.382230e-03	1.186520e-04	11	2.252150e-02	1.924640e-03	7	false	GAMG	5.490850e-02	5.438810e-04	6	true
226           	smoothSolver	1.380220e-03	1.185240e-04	11	2.077330e-02	1.883410e-03	7	false	GAMG	5.369400e-02	4.838690e-04	5	true
227           	smoothSolver	1.378080e-03	1.183870e-04	11	2.115390e-02	1.812780e-03	7	false	GAMG	5.103490e-02	4.567730e-04	5	true
228           	smoothSolver	1.376100e-03	1.182570e-04	11	2.125560e-02	1.921310e-03	7	false	GAMG	5.474890e-02	4.620040e-04	5	true
229           	smoothSolver	1.374240e-03	1.181350e-04	11	2.229230e-02	1.955660e-03	7	false	GAMG	5.502300e-02	4.819710e-04	5	true
230           	smoothSolver	1.372390e-03	1.180150e-04	11	2.178230e-02	2.015890e-03	7	false	GAMG	5.266140e-02	4.967580e-04	5	true