# Force and moment coefficients
# dragDir     : (1.000000e+00 0.000000e+00 0.000000e+00)
# sideDir     : (0.000000e+00 1.000000e+00 0.000000e+00)
# liftDir     : (0.000000e+00 0.000000e+00 1.000000e+00)
# rollAxis    : (1.000000e+00 0.000000e+00 0.000000e+00)
# pitchAxis   : (0.000000e+00 1.000000e+00 0.000000e+00)
# yawAxis     : (0.000000e+00 0.000000e+00 1.000000e+00)
# magUInf     : 1.000000e+00
# lRef        : 2.000000e+00
# Aref        : 2.000000e+00
# CofR        : (0.000000e+00 0.000000e+00 0.000000e+00)
#
# Time        	Cd            
1             	7.261277e-05
2             	9.065631e-05
3             	8.528823e-05
4             	9.374778e-05
5             	9.969362e-05
6             	1.046732e-04
7             	1.087846e-04
8             	1.123563e-04
9             	1.153796e-04
10            	1.182967e-04
11            	1.209611e-04
12            	1.234843e-04
13            	1.259081e-04
14            	1.282916e-04
15            	1.307342e-04
16            	1.331914e-04
17            	1.357388e-04
18            	1.383485e-04
19            	1.409556e-04
20            	1.435856e-04
21            	1.462541e-04
22            	1.489733e-04
23            	1.517600e-04
24            	1.545855e-04
25            	1.574630e-04
26            	1.603980e-04
27            	1.633784e-04
28            	1.664087e-04
29            	1.694797e-04
30            	1.725954e-04
31            	1.757501e-04
32            	1.789387e-04
33            	1.821663e-04
34            	1.854325e-04
35            	1.887320e-04
36            	1.920674e-04
37            	1.954378e-04
38            	1.988476e-04
39            	2.022848e-04
40            	2.057564e-04
41            	2.092554e-04
42            	2.127899e-04
43            	2.163556e-04
44            	2.199495e-04
45            	2.235764e-04
46            	2.272297e-04
47            	2.309125e-04
48            	2.346241e-04
49            	2.383655e-04
50            	2.421349e-04
51            	2.459281e-04
52            	2.497511e-04
53            	2.536015e-04
54            	2.574816e-04
55            	2.613907e-04
56            	2.653238e-04
57            	2.692882e-04
58            	2.732798e-04
59            	2.772994e-04
60            	2.813454e-04
61            	2.854211e-04
62            	2.895236e-04
63            	2.936578e-04
64            	2.978198e-04
65            	3.020114e-04
66            	3.062335e-04
67            	3.104858e-04
68            	3.147677e-04
69            	3.190809e-04
70            	3.234236e-04
71            	3.278000e-04
72            	3.322067e-04
73            	3.366466e-04
74            	3.411171e-04
75            	3.456215e-04
76            	3.501589e-04
77            	3.547301e-04
78            	3.593353e-04
79            	3.639760e-04
80            	3.686515e-04
81            	3.733621e-04
82            	3.781091e-04
83            	3.828917e-04
84            	3.877115e-04
85            	3.925680e-04
86            	3.974614e-04
87            	4.023923e-04
88            	4.073619e-04
89            	4.123696e-04
90            	4.174163e-04
91            	4.225013e-04
92            	4.276260e-04
93            	4.327904e-04
94            	4.379939e-04
95            	4.432373e-04
96            	4.485203e-04
97            	4.538429e-04
98            	4.592062e-04
99            	4.646099e-04
100           	4.700534e-04
101           	4.755373e-04
102           	4.810618e-04
103           	4.866261e-04
104           	4.922306e-04
105           	4.978744e-04
106           	5.035578e-04
107           	5.092810e-04
108           	5.150430e-04
109           	5.208447e-04
110           	5.266848e-04
111           	5.325630e-04
112           	5.384785e-04
113           	5.444325e-04
114           	5.504230e-04
115           	5.564502e-04
116           	5.625123e-04
117           	5.686107e-04
118           	5.747428e-04
119           	5.809093e-04
120           	5.871084e-04
121           	5.933401e-04
122           	5.996027e-04
123           	6.058966e-04
124           	6.122202e-04
125           	6.185723e-04
126           	6.249532e-04
127           	6.313612e-04
128           	6.377953e-04
129           	6.442541e-04
130           	6.507368e-04
131           	6.572428e-04
132           	6.637704e-04
133           	6.703184e-04
134           	6.770910e-04
135           	6.838668e-04
136           	6.906566e-04
137           	6.974593e-04
138           	7.042747e-04
139           	7.111030e-04
140           	7.179415e-04
141           	7.247895e-04
142           	7.316458e-04
143           	7.385095e-04
144           	7.453783e-04
145           	7.522515e-04
146           	7.591275e-04
147           	7.660050e-04
148           	7.728822e-04
149           	7.797586e-04
150           	7.866321e-04
151           	7.935015e-04
152           	8.003652e-04
153           	8.072222e-04
154           	8.140712e-04
155           	8.209112e-04
156           	8.277410e-04
157           	8.345587e-04
158           	8.413635e-04
159           	8.481542e-04
160           	8.549304e-04
161           	8.616906e-04
162           	8.684336e-04
163           	8.751579e-04
164           	8.818634e-04
165           	8.885494e-04
166           	8.952139e-04
167           	9.018578e-04
168           	9.084783e-04
169           	9.150772e-04
170           	9.216515e-04
171           	9.282022e-04
172           	9.347282e-04
173           	9.412288e-04
174           	9.477038e-04
175           	9.541526e-04
176           	9.605750e-04
177           	9.669707e-04
178           	9.733388e-04
179           	9.796796e-04
180           	9.859927e-04
181           	9.922776e-04
182           	9.985343e-04
183           	1.004762e-03
184           	1.010962e-03
185           	1.017132e-03
186           	1.023275e-03
187           	1.029387e-03
188           	1.035471e-03
189           	1.041526e-03
190           	1.047552e-03
191           	1.053549e-03
192           	1.059517e-03
193           	1.065457e-03
194           	1.071368e-03
195           	1.077250e-03
196           	1.083104e-03
197           	1.088931e-03
198           	1.094730e-03
199           	1.100501e-03
200           	1.106246e-03
201           	1.111963e-03
202           	1.117654e-03
203           	1.123319e-03
204           	1.128959e-03
205           	1.134573e-03
206           	1.140162e-03
207           	1.145726e-03
208           	1.151265e-03
209           	1.156779e-03
210           	1.162270e-03
211           	1.167737e-03
212           	1.173181e-03
213           	1.178601e-03
214           	1.183998e-03
215           	1.189372e-03
216           	1.194723e-03
217           	1.200052e-03
218           	1.205358e-03
219           	1.210642e-03
220           	1.215903e-03
221           	1.221142e-03
222           	1.226359e-03
223           	1.231568e-03
224           	1.236744e-03
225           	1.241909e-03
226           	1.247043e-03
227           	1.252153e-03
228           	1.257250e-03
229           	1.262328e-03
230           	1.267374e-03
231           	1.272406e-03
232           	1.277416e-03
233           	1.282404e-03
234           	1.287370e-03
235           	1.292313e-03
236           	1.297233e-03
237           	1.302130e-03
238           	1.307004e-03
239           	1.311854e-03
240           	1.316681e-03
241           	1.321484e-03
242           	1.326263e-03
243           	1.331017e-03
244           	1.335747e-03
245           	1.340452e-03
246           	1.345132e-03
247           	1.349787e-03
248           	1.354417e-03
249           	1.359021e-03
250           	1.363599e-03
251           	1.368151e-03
252           	1.372676e-03
253           	1.377174e-03
254           	1.381645e-03
255           	1.386090e-03
256           	1.390506e-03
257           	1.394896e-03
258           	1.399257e-03
259           	1.403590e-03
260           	1.407895e-03
261           	1.412172e-03
262           	1.416419e-03
263           	1.420637e-03
264           	1.424827e-03
265           	1.428987e-03
266           	1.433117e-03
267           	1.437217e-03
268           	1.441288e-03
269           	1.445328e-03
270           	1.449332e-03
271           	1.453311e-03
272           	1.457253e-03
273           	1.461165e-03
274           	1.465045e-03
275           	1.468894e-03
276           	1.472732e-03
277           	1.476547e-03
278           	1.480310e-03
279           	1.484051e-03
280           	1.487764e-03
281           	1.491443e-03
282           	1.495088e-03
283           	1.498698e-03
284           	1.502271e-03
285           	1.505809e-03
286           	1.509312e-03
287           	1.512779e-03
288           	1.516210e-03
289           	1.519607e-03
290           	1.522968e-03
291           	1.526295e-03
292           	1.529587e-03
293           	1.532843e-03
294           	1.536066e-03
295           	1.539254e-03
296           	1.542407e-03
297           	1.545526e-03
298           	1.548611e-03
299           	1.551661e-03
300           	1.554678e-03
301           	1.557660e-03
302           	1.560608e-03
303           	1.563523e-03
304           	1.566404e-03
305           	1.569251e-03
306           	1.572065e-03
307           	1.574846e-03
308           	1.577592e-03
309           	1.580306e-03
310           	1.582986e-03
311           	1.585634e-03
312           	1.588249e-03
313           	1.590831e-03
314           	1.593381e-03
315           	1.595898e-03
316           	1.598382e-03
317           	1.600835e-03
318           	1.603256e-03
319           	1.605644e-03
320           	1.608001e-03
321           	1.610326e-03
322           	1.612620e-03
323           	1.614883e-03
324           	1.617114e-03
325           	1.619315e-03
326           	1.621485e-03
327           	1.623624e-03
328           	1.625733e-03
329           	1.627812e-03
330           	1.629861e-03
331           	1.631879e-03
332           	1.633869e-03
333           	1.635828e-03
334           	1.637759e-03
335           	1.639660e-03
336           	1.641532e-03
337           	1.643375e-03
338           	1.645190e-03
339           	1.646977e-03
340           	1.648735e-03
341           	1.650465e-03
342           	1.652168e-03
343           	1.653842e-03
344           	1.655489e-03
345           	1.657109e-03
346           	1.658701e-03
347           	1.660267e-03
348           	1.661806e-03
349           	1.663318e-03
350           	1.664804e-03
351           	1.666264e-03
352           	1.667698e-03
353           	1.669106e-03
354           	1.670488e-03
355           	1.671844e-03
356           	1.673175e-03
357           	1.674481e-03
358           	1.675763e-03
359           	1.677019e-03
360           	1.678251e-03
361           	1.679458e-03
362           	1.680641e-03
363           	1.681800e-03
364           	1.682935e-03
365           	1.684046e-03
366           	1.685134e-03
367           	1.686198e-03
368           	1.687238e-03
369           	1.688255e-03
370           	1.689250e-03
371           	1.690222e-03
372           	1.691170e-03
373           	1.692096e-03
374           	1.693001e-03
375           	1.693882e-03
376           	1.694742e-03
377           	1.695580e-03
378           	1.696395e-03
379           	1.697189e-03
380           	1.697962e-03
381           	1.698713e-03
382           	1.699443e-03
383           	1.700151e-03
384           	1.700839e-03
385           	1.701506e-03
386           	1.702152e-03
387           	1.702778e-03
388           	1.703383e-03
389           	1.703967e-03
390           	1.704532e-03
391           	1.705076e-03
392           	1.705600e-03
393           	1.706104e-03
394           	1.706588e-03
395           	1.707053e-03
396           	1.707498e-03
397           	1.707924e-03
398           	1.708331e-03
399           	1.708718e-03
400           	1.709086e-03
401           	1.709436e-03
402           	1.709766e-03
403           	1.710078e-03
404           	1.710371e-03
405           	1.710646e-03
406           	1.710902e-03
407           	1.711140e-03
408           	1.711359e-03
409           	1.711561e-03
410           	1.711745e-03
411           	1.711911e-03
412           	1.712060e-03
413           	1.712191e-03
414           	1.712304e-03
415           	1.712400e-03
416           	1.712480e-03
417           	1.712541e-03
418           	1.712586e-03
419           	1.712614e-03
420           	1.712626e-03
421           	1.712620e-03
422           	1.712599e-03
423           	1.712561e-03
424           	1.712507e-03
425           	1.712436e-03
426           	1.712349e-03
427           	1.712248e-03
428           	1.712129e-03
429           	1.711995e-03
430           	1.711845e-03
431           	1.711681e-03
432           	1.711501e-03
433           	1.711305e-03
434           	1.711095e-03
435           	1.710869e-03
436           	1.710634e-03
437           	1.710380e-03
438           	1.710117e-03
439           	1.709840e-03
440           	1.709550e-03
441           	1.709247e-03
442           	1.708930e-03
443           	1.708600e-03
444           	1.708256e-03
445           	1.707900e-03
446           	1.707530e-03
447           	1.707148e-03
448           	1.706751e-03
449           	1.706343e-03
450           	1.705922e-03
451           	1.705488e-03
452           	1.705041e-03
453           	1.704582e-03
454           	1.704111e-03
455           	1.703627e-03
456           	1.703132e-03
457           	1.702624e-03
458           	1.702105e-03
459           	1.701574e-03
460           	1.701030e-03
461           	1.700475e-03
462           	1.699909e-03
463           	1.699331e-03
464           	1.698742e-03
465           	1.698143e-03
466           	1.697531e-03
467           	1.696909e-03
468           	1.696275e-03
469           	1.695630e-03
470           	1.694975e-03
471           	1.694309e-03
472           	1.693632e-03
473           	1.692944e-03
474           	1.692245e-03
475           	1.691536e-03
476           	1.690817e-03
477           	1.690088e-03
478           	1.689348e-03
479           	1.688599e-03
480           	1.687839e-03
481           	1.687070e-03
482           	1.686290e-03
483           	1.685501e-03
484           	1.684702e-03
485           	1.683894e-03
486           	1.683076e-03
487           	1.682248e-03
488           	1.681412e-03
489           	1.680566e-03
490           	1.679710e-03
491           	1.678846e-03
492           	1.677973e-03
493           	1.677090e-03
494           	1.676198e-03
495           	1.675298e-03
496           	1.674389e-03
497           	1.673471e-03
498           	1.672544e-03
499           	1.671609e-03
500           	1.670666e-03
501           	1.669714e-03
502           	1.668753e-03
503           	1.667785e-03
504           	1.666808e-03
505           	1.665823e-03
506           	1.664830e-03
507           	1.663830e-03
508           	1.662821e-03
509           	1.661805e-03
510           	1.660781e-03
511           	1.659750e-03
512           	1.658711e-03
513           	1.657664e-03
514           	1.656610e-03
515           	1.655549e-03
516           	1.654481e-03
517           	1.653405e-03
518           	1.652322e-03
519           	1.651231e-03
520           	1.650134e-03
521           	1.649029e-03
522           	1.647918e-03
523           	1.646799e-03
524           	1.645674e-03
525           	1.644542e-03
526           	1.643404e-03
527           	1.642258e-03
528           	1.641106e-03
529           	1.639947e-03
530           	1.638781e-03
531           	1.637608e-03
532           	1.636429e-03
533           	1.635244e-03
534           	1.634051e-03
535           	1.632853e-03
536           	1.631649e-03
537           	1.630439e-03
538           	1.629221e-03
539           	1.627999e-03
540           	1.626770e-03
541           	1.625535e-03
542           	1.624294e-03
543           	1.623048e-03
544           	1.621796e-03
545           	1.620538e-03
546           	1.619275e-03
547           	1.618006e-03
548           	1.616732e-03
549           	1.615453e-03
550           	1.614169e-03
551           	1.612879e-03
552           	1.611584e-03
553           	1.610284e-03
554           	1.608979e-03
555           	1.607670e-03
556           	1.606355e-03
557           	1.605035e-03
558           	1.603710e-03
559           	1.602380e-03
560           	1.601045e-03
561           	1.599704e-03
562           	1.598359e-03
563           	1.597009e-03
564           	1.595654e-03
565           	1.594294e-03
566           	1.592929e-03
567           	1.591559e-03
568           	1.590185e-03
569           	1.588806e-03
570           	1.587423e-03
571           	1.586036e-03
572           	1.584644e-03
573           	1.583247e-03
574           	1.581847e-03
575           	1.580443e-03
576           	1.579034e-03
577           	1.577621e-03
578           	1.576204e-03
579           	1.574783e-03
580           	1.573359e-03
581           	1.571930e-03
582           	1.570497e-03
583           	1.569061e-03
584           	1.567621e-03
585           	1.566177e-03
586           	1.564728e-03
587           	1.563277e-03
588           	1.561822e-03
589           	1.560363e-03
590           	1.558901e-03
591           	1.557436e-03
592           	1.555967e-03
593           	1.554495e-03
594           	1.553019e-03
595           	1.551540e-03
596           	1.550058e-03
597           	1.548573e-03
598           	1.547084e-03
599           	1.545594e-03
600           	1.544099e-03
601           	1.542603e-03
602           	1.541120e-03
603           	1.539636e-03
604           	1.538161e-03
605           	1.536699e-03
606           	1.535228e-03
607           	1.533761e-03
608           	1.532284e-03
609           	1.530811e-03
610           	1.529328e-03
611           	1.527850e-03
612           	1.526377e-03
613           	1.524894e-03
614           	1.523412e-03
615           	1.521919e-03
616           	1.520429e-03
617           	1.518944e-03
618           	1.517464e-03
619           	1.515987e-03
620           	1.514511e-03
621           	1.513035e-03
622           	1.511558e-03
623           	1.510081e-03
624           	1.508601e-03
625           	1.507120e-03
626           	1.505638e-03
627           	1.504153e-03
628           	1.502667e-03
629           	1.501178e-03
630           	1.499688e-03
631           	1.498195e-03
632           	1.496701e-03
633           	1.495205e-03
634           	1.493707e-03
635           	1.492207e-03
636           	1.490705e-03
637           	1.489201e-03
638           	1.487696e-03
639           	1.486188e-03
640           	1.484680e-03
641           	1.483170e-03
642           	1.481657e-03
643           	1.480144e-03
644           	1.478630e-03
645           	1.477113e-03
646           	1.475591e-03
647           	1.474067e-03
648           	1.472537e-03
649           	1.471008e-03
650           	1.469474e-03
651           	1.467941e-03
652           	1.466404e-03
653           	1.464867e-03
654           	1.463331e-03
655           	1.461791e-03
656           	1.460245e-03
657           	1.458700e-03
658           	1.457151e-03
659           	1.455604e-03
660           	1.454052e-03
661           	1.452497e-03
662           	1.450937e-03
663           	1.449376e-03
664           	1.447811e-03
665           	1.446245e-03
666           	1.444676e-03
667           	1.443106e-03
668           	1.441534e-03
669           	1.439960e-03
670           	1.438384e-03
671           	1.436807e-03
672           	1.435229e-03
673           	1.433649e-03
674           	1.432068e-03
675           	1.430486e-03
676           	1.428903e-03
677           	1.427318e-03
678           	1.425732e-03
679           	1.424146e-03
680           	1.422558e-03
681           	1.420970e-03
682           	1.419381e-03
683           	1.417790e-03
684           	1.416199e-03
685           	1.414607e-03
686           	1.413014e-03
687           	1.411420e-03
688           	1.409826e-03
689           	1.408231e-03
690           	1.406635e-03
691           	1.405039e-03
692           	1.403442e-03
693           	1.401845e-03
694           	1.400247e-03
695           	1.398650e-03
696           	1.397051e-03
697           	1.395453e-03
698           	1.393854e-03
699           	1.392254e-03
700           	1.390654e-03
701           	1.389053e-03
702           	1.387452e-03
703           	1.385851e-03
704           	1.384249e-03
705           	1.382647e-03
706           	1.381045e-03
707           	1.379442e-03
708           	1.377838e-03
709           	1.376235e-03
710           	1.374631e-03
711           	1.373025e-03
712           	1.371420e-03
713           	1.369813e-03
714           	1.368207e-03
715           	1.366599e-03
716           	1.364991e-03
717           	1.363383e-03
718           	1.361774e-03
719           	1.360165e-03
720           	1.358555e-03
721           	1.356945e-03
722           	1.355335e-03
723           	1.353725e-03
724           	1.352114e-03
725           	1.350502e-03
726           	1.348890e-03
727           	1.347277e-03
728           	1.345664e-03
729           	1.344051e-03
730           	1.342437e-03
731           	1.340822e-03
732           	1.339207e-03
733           	1.337592e-03
734           	1.335978e-03
735           	1.334362e-03
736           	1.332746e-03
737           	1.331130e-03
738           	1.329513e-03
739           	1.327897e-03
740           	1.326279e-03
741           	1.324662e-03
742           	1.323045e-03
743           	1.321427e-03
744           	1.319810e-03
745           	1.318193e-03
746           	1.316576e-03
747           	1.314961e-03
748           	1.313344e-03
749           	1.311728e-03
750           	1.310112e-03
751           	1.308497e-03
752           	1.306881e-03
753           	1.305266e-03
754           	1.303651e-03
755           	1.302035e-03
756           	1.300421e-03
757           	1.298806e-03
758           	1.297191e-03
759           	1.295577e-03
760           	1.293964e-03
761           	1.292352e-03
762           	1.290740e-03
763           	1.289128e-03
764           	1.287518e-03
765           	1.285909e-03
766           	1.284300e-03
767           	1.282693e-03
768           	1.281087e-03
769           	1.279481e-03
770           	1.277875e-03
771           	1.276271e-03
772           	1.274668e-03
773           	1.273065e-03
774           	1.271463e-03
775           	1.269863e-03
776           	1.268263e-03
777           	1.266663e-03
778           	1.265063e-03
779           	1.263463e-03
780           	1.261864e-03
781           	1.260265e-03
782           	1.258666e-03
783           	1.257067e-03
784           	1.255469e-03
785           	1.253872e-03
786           	1.252275e-03
787           	1.250679e-03
788           	1.249083e-03
789           	1.247488e-03
790           	1.245894e-03
791           	1.244300e-03
792           	1.242708e-03
793           	1.241116e-03
794           	1.239524e-03
795           	1.237934e-03
796           	1.236345e-03
797           	1.234756e-03
798           	1.233168e-03
799           	1.231581e-03
800           	1.229995e-03
801           	1.228409e-03
802           	1.226824e-03
803           	1.225241e-03
804           	1.223658e-03
805           	1.222077e-03
806           	1.220497e-03
807           	1.218919e-03
808           	1.217343e-03
809           	1.215767e-03
810           	1.214193e-03
811           	1.212620e-03
812           	1.211048e-03
813           	1.209477e-03
814           	1.207906e-03
815           	1.206337e-03
816           	1.204768e-03
817           	1.203201e-03
818           	1.201636e-03
819           	1.200072e-03
820           	1.198510e-03
821           	1.196950e-03
822           	1.195390e-03
823           	1.193832e-03
824           	1.192275e-03
825           	1.190718e-03
826           	1.189162e-03
827           	1.187607e-03
828           	1.186052e-03
829           	1.184498e-03
830           	1.182945e-03
831           	1.181392e-03
832           	1.179840e-03
833           	1.178289e-03
834           	1.176740e-03
835           	1.175191e-03
836           	1.173644e-03
837           	1.172097e-03
838           	1.170552e-03
839           	1.169008e-03
840           	1.167466e-03
841           	1.165925e-03
842           	1.164385e-03
843           	1.162847e-03
844           	1.161309e-03
845           	1.159773e-03
846           	1.158239e-03
847           	1.156706e-03
848           	1.155174e-03
849           	1.153645e-03
850           	1.152117e-03
851           	1.150591e-03
852           	1.149066e-03
853           	1.147542e-03
854           	1.146020e-03
855           	1.144499e-03
856           	1.142980e-03
857           	1.141462e-03
858           	1.139945e-03
859           	1.138429e-03
860           	1.136915e-03
861           	1.135402e-03
862           	1.133891e-03
863           	1.132380e-03
864           	1.130871e-03
865           	1.129363e-03
866           	1.127856e-03
867           	1.126351e-03
868           	1.124846e-03
869           	1.123344e-03
870           	1.121843e-03
871           	1.120344e-03
872           	1.118846e-03
873           	1.117351e-03
874           	1.115858e-03
875           	1.114367e-03
876           	1.112877e-03
877           	1.111390e-03
878           	1.109903e-03
879           	1.108419e-03
880           	1.106936e-03
881           	1.105454e-03
882           	1.103974e-03
883           	1.102495e-03
884           	1.101018e-03
885           	1.099542e-03
886           	1.098068e-03
887           	1.096594e-03
888           	1.095158e-03
889           	1.093715e-03
890           	1.092270e-03
891           	1.090821e-03
892           	1.089371e-03
893           	1.087920e-03
894           	1.086466e-03
895           	1.085012e-03
896           	1.083558e-03
897           	1.082103e-03
898           	1.080649e-03
899           	1.079195e-03
900           	1.077742e-03
901           	1.076291e-03
902           	1.074840e-03
903           	1.073391e-03
904           	1.071943e-03
905           	1.070496e-03
906           	1.069050e-03
907           	1.067605e-03
908           	1.066161e-03
909           	1.064718e-03
910           	1.063276e-03
911           	1.061834e-03
912           	1.060394e-03
913           	1.058955e-03
914           	1.057516e-03
915           	1.056079e-03
916           	1.054643e-03
917           	1.053207e-03
918           	1.051774e-03
919           	1.050342e-03
920           	1.048913e-03
921           	1.047486e-03
922           	1.046062e-03
923           	1.044641e-03
924           	1.043224e-03
925           	1.041809e-03
926           	1.040397e-03
927           	1.038988e-03
928           	1.037581e-03
929           	1.036176e-03
930           	1.034773e-03
931           	1.033374e-03
932           	1.031976e-03
933           	1.030581e-03
934           	1.029189e-03
935           	1.027799e-03
936           	1.026412e-03
937           	1.025026e-03
938           	1.023642e-03
939           	1.022260e-03
940           	1.020880e-03
941           	1.019501e-03
942           	1.018124e-03
943           	1.016750e-03
944           	1.015377e-03
945           	1.014006e-03
946           	1.012637e-03
947           	1.011270e-03
948           	1.009904e-03
949           	1.008542e-03
950           	1.007180e-03
951           	1.005822e-03
952           	1.004465e-03
953           	1.003110e-03
954           	1.001757e-03
955           	1.000407e-03
956           	9.990588e-04
957           	9.977131e-04
958           	9.963703e-04
959           	9.950296e-04
960           	9.936921e-04
961           	9.923572e-04
962           	9.910246e-04
963           	9.896951e-04
964           	9.883683e-04
965           	9.870438e-04
966           	9.857217e-04
967           	9.844022e-04
968           	9.830847e-04
969           	9.817689e-04
970           	9.804550e-04
971           	9.791430e-04
972           	9.778325e-04
973           	9.765239e-04
974           	9.752171e-04
975           	9.739125e-04
976           	9.726094e-04
977           	9.713084e-04
978           	9.700094e-04
979           	9.687128e-04
980           	9.674185e-04
981           	9.661258e-04
982           	9.648352e-04
983           	9.635466e-04
984           	9.622596e-04
985           	9.609749e-04
986           	9.596917e-04
987           	9.584108e-04
988           	9.571319e-04
989           	9.558554e-04
990           	9.545807e-04
991           	9.533084e-04
992           	9.520383e-04
993           	9.507702e-04
994           	9.495039e-04
995           	9.482398e-04
996           	9.469774e-04
997           	9.457170e-04
998           	9.444584e-04
999           	9.432014e-04
1000          	9.419465e-04
1001          	9.406933e-04
1002          	9.394420e-04
1003          	9.381929e-04
1004          	9.369454e-04
1005          	9.357000e-04
1006          	9.344569e-04
1007          	9.332155e-04
1008          	9.319756e-04
1009          	9.307376e-04
1010          	9.295017e-04
1011          	9.282678e-04
1012          	9.270356e-04
1013          	9.258059e-04
1014          	9.245786e-04
1015          	9.233532e-04
1016          	9.221300e-04
1017          	9.209089e-04
1018          	9.196902e-04
1019          	9.184729e-04
1020          	9.172579e-04
1021          	9.160450e-04
1022          	9.148342e-04
1023          	9.136257e-04
1024          	9.124192e-04
1025          	9.112149e-04
1026          	9.100129e-04
1027          	9.088135e-04
1028          	9.076166e-04
1029          	9.064224e-04
1030          	9.052308e-04
1031          	9.040412e-04
1032          	9.028543e-04
1033          	9.016694e-04
1034          	9.004865e-04
1035          	8.993056e-04
1036          	8.981268e-04
1037          	8.969505e-04
1038          	8.957762e-04
1039          	8.946041e-04
1040          	8.934342e-04
1041          	8.922667e-04
1042          	8.911021e-04
1043          	8.899398e-04
1044          	8.887799e-04
1045          	8.876231e-04
1046          	8.864683e-04
1047          	8.853162e-04
1048          	8.841668e-04
1049          	8.830197e-04
1050          	8.818753e-04
1051          	8.807328e-04