# Force and moment coefficients
# dragDir     : (1.000000e+00 0.000000e+00 0.000000e+00)
# sideDir     : (0.000000e+00 1.000000e+00 0.000000e+00)
# liftDir     : (0.000000e+00 0.000000e+00 1.000000e+00)
# rollAxis    : (1.000000e+00 0.000000e+00 0.000000e+00)
# pitchAxis   : (0.000000e+00 1.000000e+00 0.000000e+00)
# yawAxis     : (0.000000e+00 0.000000e+00 1.000000e+00)
# magUInf     : 1.000000e+00
# lRef        : 2.000000e+00
# Aref        : 2.000000e+00
# CofR        : (0.000000e+00 0.000000e+00 0.000000e+00)
#
# Time        	Cd            
1             	4.363590e-06
2             	-1.325728e-05
3             	-2.116530e-06
4             	4.269744e-07
5             	1.947463e-06
6             	2.204249e-06
7             	3.279881e-06
8             	4.269347e-06
9             	4.203557e-06
10            	4.204844e-06
11            	5.144770e-06
12            	5.628300e-06
13            	5.537945e-06
14            	5.926216e-06
15            	6.693803e-06
16            	7.005384e-06
17            	7.169866e-06
18            	7.763318e-06
19            	8.390189e-06
20            	8.750323e-06
21            	9.181076e-06
22            	9.849631e-06
23            	1.047670e-05
24            	1.103308e-05
25            	1.178918e-05
26            	1.273894e-05
27            	1.373136e-05
28            	1.485181e-05
29            	1.625807e-05
30            	1.790177e-05
31            	1.969692e-05
32            	2.170710e-05
33            	2.398007e-05
34            	2.643182e-05
35            	2.901442e-05
36            	3.174266e-05
37            	3.459122e-05
38            	3.750846e-05
39            	4.048046e-05
40            	4.352448e-05
41            	4.662089e-05
42            	4.974134e-05
43            	5.288829e-05
44            	5.606828e-05
45            	5.925477e-05
46            	6.243680e-05
47            	6.564047e-05
48            	6.886709e-05
49            	7.209218e-05
50            	7.531302e-05
51            	7.854145e-05
52            	8.177307e-05
53            	8.499592e-05
54            	8.821022e-05
55            	9.142137e-05
56            	9.462493e-05
57            	9.781581e-05
58            	1.009935e-04
59            	1.041585e-04
60            	1.073092e-04
61            	1.104434e-04
62            	1.135592e-04
63            	1.166556e-04
64            	1.197340e-04
65            	1.227920e-04
66            	1.258276e-04
67            	1.288412e-04
68            	1.318329e-04
69            	1.348005e-04
70            	1.377426e-04
71            	1.406598e-04
72            	1.435518e-04
73            	1.464177e-04
74            	1.492570e-04
75            	1.520691e-04
76            	1.548539e-04
77            	1.576112e-04
78            	1.603403e-04
79            	1.630401e-04
80            	1.657110e-04
81            	1.683520e-04
82            	1.709635e-04
83            	1.735458e-04
84            	1.760979e-04
85            	1.786199e-04
86            	1.811116e-04
87            	1.835724e-04
88            	1.860024e-04
89            	1.884016e-04
90            	1.907698e-04
91            	1.931066e-04
92            	1.954122e-04
93            	1.976866e-04
94            	1.999295e-04
95            	2.021408e-04
96            	2.043207e-04
97            	2.064689e-04
98            	2.085853e-04
99            	2.106699e-04
100           	2.127228e-04
101           	2.147444e-04
102           	2.167346e-04
103           	2.186934e-04
104           	2.206207e-04
105           	2.225170e-04
106           	2.243821e-04
107           	2.262161e-04
108           	2.280190e-04
109           	2.297909e-04
110           	2.315316e-04
111           	2.332418e-04
112           	2.349211e-04
113           	2.365697e-04
114           	2.381876e-04
115           	2.397751e-04
116           	2.413322e-04
117           	2.428589e-04
118           	2.443548e-04
119           	2.458197e-04
120           	2.472544e-04
121           	2.486586e-04
122           	2.500322e-04
123           	2.513758e-04
124           	2.526901e-04
125           	2.539747e-04
126           	2.552296e-04
127           	2.564557e-04
128           	2.576519e-04
129           	2.588162e-04
130           	2.599510e-04
131           	2.610587e-04
132           	2.621369e-04
133           	2.631852e-04
134           	2.642064e-04
135           	2.652046e-04
136           	2.661777e-04
137           	2.671239e-04
138           	2.680434e-04
139           	2.689357e-04
140           	2.698032e-04
141           	2.706468e-04
142           	2.714644e-04
143           	2.722577e-04
144           	2.730305e-04
145           	2.737803e-04
146           	2.745017e-04
147           	2.751943e-04
148           	2.758660e-04
149           	2.765210e-04
150           	2.771564e-04
151           	2.777716e-04
152           	2.783665e-04
153           	2.789411e-04
154           	2.794901e-04
155           	2.800130e-04
156           	2.805159e-04
157           	2.809959e-04
158           	2.814544e-04
159           	2.818905e-04
160           	2.822989e-04
161           	2.826829e-04
162           	2.830512e-04
163           	2.834096e-04
164           	2.837540e-04
165           	2.840797e-04
166           	2.843896e-04
167           	2.846874e-04
168           	2.849683e-04
169           	2.852275e-04
170           	2.854611e-04
171           	2.856710e-04
172           	2.858678e-04
173           	2.860497e-04
174           	2.862091e-04
175           	2.863501e-04
176           	2.864745e-04
177           	2.865865e-04
178           	2.866992e-04
179           	2.868099e-04
180           	2.869056e-04
181           	2.869778e-04
182           	2.870307e-04
183           	2.870692e-04
184           	2.871159e-04
185           	2.871721e-04
186           	2.871986e-04
187           	2.872357e-04
188           	2.872527e-04
189           	2.872069e-04
190           	2.871615e-04
191           	2.871772e-04
192           	2.872045e-04
193           	2.872072e-04
194           	2.871946e-04
195           	2.871789e-04
196           	2.871528e-04
197           	2.871039e-04
198           	2.870407e-04
199           	2.869740e-04
200           	2.868860e-04
201           	2.867732e-04
202           	2.866606e-04
203           	2.865545e-04
204           	2.864333e-04
205           	2.863076e-04
206           	2.861747e-04
207           	2.860353e-04
208           	2.858905e-04
209           	2.857331e-04
210           	2.855529e-04
211           	2.853608e-04
212           	2.851599e-04
213           	2.849520e-04
214           	2.847389e-04
215           	2.845238e-04
216           	2.842991e-04
217           	2.840674e-04
218           	2.838393e-04
219           	2.836031e-04
220           	2.833468e-04
221           	2.830892e-04
222           	2.828353e-04
223           	2.825806e-04
224           	2.823152e-04
225           	2.820371e-04
226           	2.817498e-04
227           	2.814520e-04
228           	2.811441e-04
229           	2.808353e-04
230           	2.805326e-04
231           	2.802235e-04
232           	2.799030e-04
233           	2.795812e-04
234           	2.792629e-04
235           	2.789379e-04
236           	2.785976e-04
237           	2.782428e-04
238           	2.778896e-04
239           	2.775388e-04
240           	2.771869e-04
241           	2.768297e-04
242           	2.764719e-04
243           	2.761130e-04
244           	2.757465e-04
245           	2.753766e-04
246           	2.750116e-04
247           	2.746437e-04
248           	2.742665e-04
249           	2.738833e-04
250           	2.735035e-04
251           	2.731352e-04
252           	2.727708e-04
253           	2.724016e-04
254           	2.720297e-04
255           	2.716507e-04
256           	2.712615e-04
257           	2.708620e-04
258           	2.704620e-04
259           	2.700676e-04
260           	2.696667e-04
261           	2.692624e-04
262           	2.688617e-04
263           	2.684621e-04
264           	2.680527e-04
265           	2.676357e-04
266           	2.672240e-04
267           	2.668219e-04
268           	2.664157e-04
269           	2.660056e-04
270           	2.655953e-04
271           	2.651843e-04
272           	2.647704e-04
273           	2.643489e-04
274           	2.639321e-04
275           	2.635260e-04
276           	2.631112e-04
277           	2.626914e-04
278           	2.622751e-04
279           	2.618625e-04
280           	2.614499e-04
281           	2.610313e-04
282           	2.606126e-04
283           	2.601981e-04
284           	2.597823e-04
285           	2.593641e-04
286           	2.589494e-04
287           	2.585389e-04
288           	2.581256e-04
289           	2.577133e-04
290           	2.573052e-04
291           	2.569050e-04
292           	2.565041e-04
293           	2.560977e-04
294           	2.556886e-04
295           	2.552841e-04
296           	2.548839e-04
297           	2.544875e-04
298           	2.540888e-04
299           	2.536916e-04
300           	2.533025e-04
301           	2.529317e-04
302           	2.525583e-04
303           	2.522037e-04
304           	2.518625e-04
305           	2.515255e-04
306           	2.511919e-04
307           	2.508624e-04
308           	2.505398e-04
309           	2.502187e-04
310           	2.499033e-04
311           	2.495889e-04
312           	2.492706e-04
313           	2.489509e-04
314           	2.486388e-04
315           	2.483349e-04
316           	2.480328e-04
317           	2.477289e-04
318           	2.474252e-04
319           	2.471207e-04
320           	2.468133e-04
321           	2.464932e-04
322           	2.461751e-04
323           	2.458600e-04
324           	2.455509e-04
325           	2.452459e-04
326           	2.449440e-04
327           	2.446452e-04
328           	2.443482e-04
329           	2.440499e-04
330           	2.437558e-04
331           	2.434686e-04
332           	2.431826e-04
333           	2.428899e-04
334           	2.425939e-04
335           	2.422962e-04
336           	2.420006e-04
337           	2.417100e-04
338           	2.414237e-04
339           	2.411416e-04
340           	2.408592e-04
341           	2.405758e-04
342           	2.402906e-04
343           	2.400053e-04
344           	2.397206e-04
345           	2.394389e-04
346           	2.391595e-04
347           	2.388813e-04
348           	2.385999e-04
349           	2.383192e-04
350           	2.380416e-04
351           	2.377676e-04
352           	2.374926e-04
353           	2.372167e-04
354           	2.369402e-04
355           	2.366638e-04
356           	2.363862e-04
357           	2.361055e-04
358           	2.358228e-04
359           	2.355385e-04
360           	2.352546e-04
361           	2.349756e-04
362           	2.346949e-04
363           	2.344092e-04
364           	2.341211e-04
365           	2.338362e-04
366           	2.335539e-04
367           	2.332716e-04
368           	2.329884e-04
369           	2.327046e-04
370           	2.324268e-04
371           	2.321467e-04
372           	2.318644e-04
373           	2.315826e-04
374           	2.313021e-04
375           	2.310239e-04
376           	2.307462e-04
377           	2.304687e-04
378           	2.301913e-04
379           	2.299138e-04
380           	2.296363e-04
381           	2.293573e-04
382           	2.290794e-04
383           	2.288032e-04
384           	2.285282e-04
385           	2.282529e-04
386           	2.279752e-04
387           	2.276974e-04
388           	2.274225e-04
389           	2.271492e-04
390           	2.268774e-04
391           	2.266049e-04
392           	2.263307e-04
393           	2.260580e-04
394           	2.257869e-04
395           	2.255192e-04
396           	2.252542e-04
397           	2.249925e-04
398           	2.247313e-04
399           	2.244706e-04
400           	2.242100e-04
401           	2.239519e-04
402           	2.236949e-04
403           	2.234386e-04
404           	2.231825e-04
405           	2.229290e-04
406           	2.226763e-04
407           	2.224268e-04
408           	2.221773e-04
409           	2.219288e-04
410           	2.216815e-04
411           	2.214361e-04
412           	2.211924e-04
413           	2.209491e-04
414           	2.207052e-04
415           	2.204624e-04
416           	2.202199e-04
417           	2.199802e-04
418           	2.197432e-04
419           	2.195067e-04
420           	2.192728e-04
421           	2.190401e-04
422           	2.188082e-04
423           	2.185815e-04
424           	2.183582e-04
425           	2.181345e-04
426           	2.179124e-04
427           	2.176948e-04
428           	2.174765e-04
429           	2.172639e-04
430           	2.170507e-04
431           	2.168422e-04
432           	2.166364e-04
433           	2.164333e-04
434           	2.162297e-04
435           	2.160306e-04
436           	2.158299e-04
437           	2.156327e-04
438           	2.154324e-04
439           	2.152346e-04
440           	2.150397e-04
441           	2.148455e-04
442           	2.146524e-04
443           	2.144605e-04
444           	2.142694e-04
445           	2.140793e-04
446           	2.138900e-04
447           	2.137026e-04
448           	2.135154e-04
449           	2.133296e-04
450           	2.131451e-04
451           	2.129620e-04
452           	2.127793e-04
453           	2.125971e-04
454           	2.124160e-04
455           	2.122356e-04
456           	2.120559e-04
457           	2.118769e-04
458           	2.116988e-04
459           	2.115221e-04
460           	2.113459e-04
461           	2.111705e-04
462           	2.109959e-04
463           	2.108222e-04
464           	2.106494e-04
465           	2.104774e-04
466           	2.103054e-04
467           	2.101342e-04
468           	2.099629e-04
469           	2.097931e-04
470           	2.096230e-04
471           	2.094544e-04
472           	2.092858e-04
473           	2.091179e-04
474           	2.089506e-04
475           	2.087835e-04
476           	2.086124e-04
477           	2.084428e-04
478           	2.082742e-04
479           	2.081066e-04
480           	2.079389e-04
481           	2.077726e-04
482           	2.076058e-04
483           	2.074395e-04
484           	2.072739e-04
485           	2.071095e-04
486           	2.069450e-04
487           	2.067831e-04
488           	2.066211e-04
489           	2.064594e-04
490           	2.062980e-04
491           	2.061370e-04
492           	2.059767e-04
493           	2.058167e-04
494           	2.056581e-04
495           	2.055002e-04
496           	2.053432e-04
497           	2.051869e-04
498           	2.050312e-04
499           	2.048759e-04
500           	2.047216e-04
501           	2.045675e-04
502           	2.044137e-04
503           	2.042614e-04
504           	2.041102e-04
505           	2.039592e-04
506           	2.038092e-04
507           	2.036600e-04
508           	2.035122e-04
509           	2.033652e-04
510           	2.032191e-04
511           	2.030733e-04
512           	2.029278e-04
513           	2.027829e-04
514           	2.026388e-04
515           	2.024949e-04
516           	2.023521e-04
517           	2.022098e-04
518           	2.020684e-04
519           	2.019278e-04
520           	2.017878e-04
521           	2.016486e-04
522           	2.015108e-04
523           	2.013738e-04
524           	2.012373e-04
525           	2.011018e-04
526           	2.009666e-04
527           	2.008324e-04
528           	2.006986e-04
529           	2.005656e-04
530           	2.004323e-04
531           	2.003002e-04
532           	2.001690e-04
533           	2.000389e-04
534           	1.999096e-04
535           	1.997804e-04
536           	1.996520e-04
537           	1.995245e-04
538           	1.993977e-04
539           	1.992723e-04
540           	1.991471e-04
541           	1.990223e-04
542           	1.988983e-04
543           	1.987749e-04
544           	1.986560e-04
545           	1.985379e-04
546           	1.984201e-04
547           	1.983011e-04
548           	1.981844e-04
549           	1.980659e-04
550           	1.979506e-04
551           	1.978339e-04
552           	1.977201e-04
553           	1.976067e-04
554           	1.974924e-04
555           	1.973810e-04
556           	1.972675e-04
557           	1.971563e-04
558           	1.970433e-04
559           	1.969329e-04
560           	1.968208e-04
561           	1.967114e-04
562           	1.966002e-04
563           	1.964895e-04
564           	1.963813e-04
565           	1.962720e-04
566           	1.961651e-04
567           	1.960563e-04
568           	1.959487e-04
569           	1.958407e-04
570           	1.957331e-04
571           	1.956260e-04
572           	1.955198e-04
573           	1.954140e-04
574           	1.953091e-04
575           	1.952046e-04
576           	1.951008e-04
577           	1.949982e-04
578           	1.948955e-04
579           	1.947949e-04
580           	1.946966e-04
581           	1.945971e-04
582           	1.944975e-04
583           	1.943979e-04
584           	1.942983e-04
585           	1.941997e-04
586           	1.941020e-04
587           	1.940046e-04
588           	1.939084e-04
589           	1.938154e-04
590           	1.937207e-04
591           	1.936264e-04
592           	1.935322e-04
593           	1.934410e-04
594           	1.933481e-04
595           	1.932559e-04
596           	1.931635e-04
597           	1.930721e-04
598           	1.929814e-04
599           	1.928938e-04
600           	1.928042e-04
601           	1.927156e-04
602           	1.926266e-04
603           	1.925383e-04
604           	1.924509e-04
605           	1.923663e-04
606           	1.922808e-04
607           	1.921982e-04
608           	1.921158e-04
609           	1.920346e-04
610           	1.919532e-04
611           	1.918702e-04
612           	1.917893e-04
613           	1.917092e-04
614           	1.916291e-04
615           	1.915479e-04
616           	1.914686e-04
617           	1.913900e-04
618           	1.913097e-04
619           	1.912321e-04
620           	1.911547e-04
621           	1.910763e-04
622           	1.909996e-04
623           	1.909212e-04
624           	1.908459e-04
625           	1.907710e-04
626           	1.906968e-04
627           	1.906208e-04
628           	1.905475e-04
629           	1.904747e-04
630           	1.904027e-04
631           	1.903313e-04
632           	1.902600e-04
633           	1.901892e-04
634           	1.901188e-04
635           	1.900490e-04
636           	1.899794e-04
637           	1.899100e-04
638           	1.898414e-04
639           	1.897730e-04
640           	1.897048e-04
641           	1.896370e-04
642           	1.895698e-04
643           	1.895031e-04
644           	1.894370e-04
645           	1.893709e-04
646           	1.893053e-04
647           	1.892399e-04
648           	1.891749e-04
649           	1.891105e-04
650           	1.890467e-04
651           	1.889832e-04
652           	1.889199e-04
653           	1.888568e-04
654           	1.887943e-04
655           	1.887319e-04
656           	1.886702e-04
657           	1.886089e-04
658           	1.885481e-04
659           	1.884876e-04
660           	1.884275e-04
661           	1.883677e-04
662           	1.883084e-04
663           	1.882493e-04
664           	1.881906e-04
665           	1.881324e-04
666           	1.880749e-04
667           	1.880174e-04
668           	1.879606e-04
669           	1.879039e-04
670           	1.878476e-04
671           	1.877919e-04
672           	1.877364e-04
673           	1.876813e-04
674           	1.876266e-04
675           	1.875721e-04
676           	1.875182e-04
677           	1.874646e-04
678           	1.874114e-04
679           	1.873585e-04
680           	1.873061e-04
681           	1.872540e-04
682           	1.872023e-04
683           	1.871508e-04
684           	1.870997e-04
685           	1.870490e-04
686           	1.869986e-04
687           	1.869482e-04
688           	1.868967e-04
689           	1.868470e-04
690           	1.867979e-04
691           	1.867496e-04
692           	1.867015e-04
693           	1.866540e-04
694           	1.866065e-04
695           	1.865595e-04
696           	1.865130e-04
697           	1.864667e-04
698           	1.864207e-04
699           	1.863750e-04
700           	1.863296e-04
701           	1.862842e-04
702           	1.862380e-04
703           	1.861933e-04
704           	1.861491e-04
705           	1.861051e-04
706           	1.860604e-04
707           	1.860172e-04
708           	1.859741e-04
709           	1.859301e-04
710           	1.858838e-04
711           	1.858421e-04
712           	1.857980e-04
713           	1.857563e-04
714           	1.857130e-04
715           	1.856718e-04
716           	1.856279e-04
717           	1.855872e-04
718           	1.855442e-04
719           	1.855046e-04
720           	1.854638e-04
721           	1.854258e-04
722           	1.853864e-04
723           	1.853489e-04
724           	1.853092e-04
725           	1.852726e-04
726           	1.852340e-04
727           	1.851994e-04
728           	1.851620e-04
729           	1.851275e-04
730           	1.850906e-04
731           	1.850567e-04
732           	1.850208e-04
733           	1.849878e-04
734           	1.849530e-04
735           	1.849209e-04
736           	1.848869e-04
737           	1.848556e-04
738           	1.848225e-04
739           	1.847922e-04
740           	1.847599e-04
741           	1.847303e-04
742           	1.846990e-04
743           	1.846701e-04
744           	1.846395e-04
745           	1.846112e-04
746           	1.845813e-04
747           	1.845540e-04
748           	1.845248e-04
749           	1.844981e-04
750           	1.844696e-04
751           	1.844435e-04
752           	1.844156e-04
753           	1.843901e-04
754           	1.843629e-04
755           	1.843379e-04
756           	1.843110e-04
757           	1.842843e-04
758           	1.842598e-04
759           	1.842341e-04
760           	1.842085e-04
761           	1.841849e-04
762           	1.841601e-04
763           	1.841373e-04
764           	1.841130e-04
765           	1.840888e-04
766           	1.840666e-04
767           	1.840432e-04
768           	1.840197e-04
769           	1.839962e-04
770           	1.839730e-04
771           	1.839502e-04
772           	1.839295e-04
773           	1.839077e-04
774           	1.838861e-04
775           	1.838644e-04
776           	1.838429e-04
777           	1.838217e-04
778           	1.838008e-04
779           	1.837803e-04
780           	1.837600e-04
781           	1.837400e-04
782           	1.837204e-04
783           	1.837011e-04
784           	1.836821e-04
785           	1.836635e-04
786           	1.836451e-04
787           	1.836271e-04
788           	1.836094e-04
789           	1.835921e-04
790           	1.835749e-04
791           	1.835581e-04
792           	1.835417e-04
793           	1.835255e-04
794           	1.835096e-04
795           	1.834940e-04
796           	1.834786e-04
797           	1.834634e-04
798           	1.834486e-04
799           	1.834341e-04
800           	1.834198e-04
801           	1.834058e-04
802           	1.833919e-04
803           	1.833784e-04
804           	1.833651e-04
805           	1.833520e-04
806           	1.833391e-04
807           	1.833266e-04
808           	1.833142e-04
809           	1.833020e-04
810           	1.832900e-04
811           	1.832783e-04
812           	1.832669e-04
813           	1.832556e-04
814           	1.832446e-04
815           	1.832338e-04
816           	1.832233e-04
817           	1.832129e-04
818           	1.832028e-04
819           	1.831929e-04
820           	1.831831e-04
821           	1.831736e-04
822           	1.831642e-04
823           	1.831550e-04
824           	1.831460e-04
825           	1.831372e-04
826           	1.831286e-04
827           	1.831202e-04
828           	1.831120e-04
829           	1.831038e-04
830           	1.830959e-04
831           	1.830881e-04
832           	1.830805e-04
833           	1.830731e-04
834           	1.830658e-04
835           	1.830587e-04
836           	1.830516e-04
837           	1.830447e-04
838           	1.830378e-04
839           	1.830311e-04
840           	1.830246e-04
841           	1.830181e-04
842           	1.830117e-04
843           	1.830054e-04
844           	1.829993e-04
845           	1.829932e-04
846           	1.829873e-04
847           	1.829815e-04
848           	1.829758e-04
849           	1.829702e-04
850           	1.829648e-04
851           	1.829595e-04
852           	1.829543e-04
853           	1.829492e-04
854           	1.829442e-04
855           	1.829394e-04
856           	1.829347e-04
857           	1.829301e-04
858           	1.829257e-04
859           	1.829214e-04
860           	1.829172e-04
861           	1.829132e-04
862           	1.829093e-04
863           	1.829056e-04
864           	1.829020e-04
865           	1.828986e-04
866           	1.828954e-04
867           	1.828923e-04
868           	1.828895e-04
869           	1.828869e-04
870           	1.828845e-04
871           	1.828822e-04
872           	1.828801e-04
873           	1.828781e-04
874           	1.828763e-04
875           	1.828746e-04
876           	1.828730e-04
877           	1.828714e-04
878           	1.828691e-04
879           	1.828686e-04
880           	1.828673e-04
881           	1.828665e-04
882           	1.828655e-04
883           	1.828648e-04
884           	1.828641e-04
885           	1.828636e-04
886           	1.828632e-04
887           	1.828629e-04
888           	1.828623e-04
889           	1.828624e-04
890           	1.828624e-04
891           	1.828626e-04
892           	1.828627e-04
893           	1.828631e-04
894           	1.828635e-04
895           	1.828640e-04
896           	1.828646e-04
897           	1.828656e-04
898           	1.828667e-04
899           	1.828679e-04
900           	1.828694e-04
901           	1.828709e-04
902           	1.828727e-04
903           	1.828745e-04
904           	1.828764e-04
905           	1.828783e-04
906           	1.828804e-04
907           	1.828825e-04
908           	1.828846e-04
909           	1.828869e-04
910           	1.828892e-04
911           	1.828913e-04
912           	1.828936e-04
913           	1.828960e-04
914           	1.828986e-04
915           	1.829014e-04
916           	1.829042e-04
917           	1.829071e-04
918           	1.829101e-04
919           	1.829132e-04
920           	1.829163e-04
921           	1.829195e-04
922           	1.829228e-04
923           	1.829261e-04
924           	1.829297e-04
925           	1.829346e-04
926           	1.829368e-04
927           	1.829406e-04
928           	1.829441e-04
929           	1.829479e-04
930           	1.829517e-04
931           	1.829556e-04
932           	1.829596e-04
933           	1.829636e-04
934           	1.829676e-04
935           	1.829717e-04
936           	1.829759e-04
937           	1.829801e-04
938           	1.829843e-04
939           	1.829887e-04
940           	1.829930e-04
941           	1.829974e-04
942           	1.830018e-04
943           	1.830065e-04
944           	1.830130e-04
945           	1.830159e-04
946           	1.830207e-04
947           	1.830250e-04
948           	1.830297e-04
949           	1.830343e-04
950           	1.830390e-04
951           	1.830437e-04
952           	1.830484e-04
953           	1.830532e-04
954           	1.830575e-04
955           	1.830637e-04
956           	1.830663e-04
957           	1.830713e-04
958           	1.830756e-04
959           	1.830805e-04
960           	1.830849e-04
961           	1.830896e-04
962           	1.830941e-04
963           	1.830987e-04
964           	1.831034e-04
965           	1.831081e-04
966           	1.831129e-04
967           	1.831177e-04
968           	1.831225e-04
969           	1.831275e-04
970           	1.831324e-04
971           	1.831373e-04
972           	1.831423e-04
973           	1.831473e-04
974           	1.831523e-04
975           	1.831574e-04
976           	1.831625e-04
977           	1.831677e-04
978           	1.831729e-04
979           	1.831781e-04
980           	1.831833e-04
981           	1.831886e-04
982           	1.831939e-04
983           	1.831993e-04
984           	1.832050e-04
985           	1.832128e-04
986           	1.832163e-04
987           	1.832227e-04
988           	1.832280e-04
989           	1.832340e-04
990           	1.832396e-04
991           	1.832451e-04
992           	1.832506e-04
993           	1.832562e-04
994           	1.832621e-04
995           	1.832702e-04
996           	1.832739e-04
997           	1.832805e-04
998           	1.832859e-04
999           	1.832921e-04
1000          	1.832977e-04
1001          	1.833034e-04
1002          	1.833090e-04
1003          	1.833146e-04
1004          	1.833203e-04
1005          	1.833259e-04
1006          	1.833316e-04
1007          	1.833373e-04
1008          	1.833434e-04
1009          	1.833518e-04
1010          	1.833555e-04
1011          	1.833623e-04
1012          	1.833678e-04
1013          	1.833742e-04
1014          	1.833800e-04
1015          	1.833860e-04
1016          	1.833918e-04
1017          	1.833976e-04
1018          	1.834039e-04
1019          	1.834125e-04
1020          	1.834163e-04
1021          	1.834232e-04
1022          	1.834288e-04
1023          	1.834353e-04
1024          	1.834413e-04
1025          	1.834478e-04
1026          	1.834567e-04
1027          	1.834605e-04
1028          	1.834676e-04
1029          	1.834734e-04
1030          	1.834800e-04
1031          	1.834860e-04
1032          	1.834921e-04
1033          	1.834981e-04
1034          	1.835041e-04
1035          	1.835102e-04
1036          	1.835166e-04
1037          	1.835254e-04
1038          	1.835293e-04
1039          	1.835375e-04
1040          	1.835443e-04
1041          	1.835520e-04
1042          	1.835590e-04
1043          	1.835662e-04
1044          	1.835736e-04
1045          	1.835842e-04
1046          	1.835885e-04
1047          	1.835968e-04
1048          	1.836034e-04
1049          	1.836110e-04
1050          	1.836179e-04
1051          	1.836248e-04