y,epsilon,k,nut,U_0,U_1,U_2
0.000567512,8.27863e-05,5.42994e-06,1.20653e-09,0.0157846,-5.2602e-10,0
0.000851268,0.000124174,8.14487e-06,1.80979e-09,0.0236769,-7.89029e-10,0
0.00113502,0.000165572,1.08604e-05,2.41318e-09,0.0315692,-1.30257e-09,0
0.00174332,0.000286072,2.89761e-05,9.94224e-09,0.0481884,-2.44551e-09,-6.39671e-25
0.00235161,0.000406586,4.70937e-05,1.74721e-08,0.0648075,-4.5122e-09,-1.55849e-24
0.00267761,0.000491445,6.71725e-05,3.05461e-08,0.0737,-5.36928e-09,-1.21834e-24
0.00300362,0.000576304,8.72513e-05,4.362e-08,0.0825925,-6.22635e-09,-8.78199e-25
0.00332962,0.000661163,0.00010733,5.6694e-08,0.091485,-7.08343e-09,-5.38055e-25
0.00470391,0.00110141,0.000239411,1.76504e-07,0.128906,-1.2906e-08,1.05848e-24
0.00916136,0.0036699,0.00130146,2.64953e-06,0.248807,-3.62825e-08,0
0.0147607,0.00939382,0.0040968,2.69603e-05,0.384741,-1.04815e-07,0
0.0152906,0.00994413,0.00438807,3.11841e-05,0.396047,-1.11254e-07,0
0.0158205,0.0104944,0.00467934,3.54081e-05,0.407353,-1.36112e-07,0
0.0161045,0.01071,0.00481423,3.8411e-05,0.412572,-1.42048e-07,0
0.0163884,0.0109256,0.00494913,4.14138e-05,0.41779,-1.47985e-07,0
0.0175244,0.011788,0.00548871,5.34253e-05,0.438664,-1.7173e-07,0
0.0218326,0.0132923,0.00698698,0.000108822,0.503658,-3.09055e-07,0
0.0224851,0.0133468,0.00715641,0.000118135,0.512093,-3.27995e-07,0
0.0231376,0.0134013,0.00732582,0.000127448,0.520528,-3.48448e-07,0
0.0245365,0.0132307,0.00757062,0.00014928,0.535629,-3.87195e-07,-3.36284e-24
0.0259353,0.0130601,0.00781541,0.000171111,0.55073,-4.22321e-07,-3.77824e-24
0.0274347,0.0127158,0.00798521,0.000196133,0.564308,-4.58681e-07,-7.30792e-25
0.0289341,0.0123715,0.00815501,0.000221154,0.577886,-4.87716e-07,-3.54382e-25
0.0293359,0.0122633,0.00818329,0.000228198,0.580958,-4.95587e-07,4.86402e-25
0.0297376,0.012155,0.00821157,0.000235241,0.584031,-5.03459e-07,1.32719e-24
0.0305412,0.0119385,0.00826814,0.000249329,0.590176,-5.19203e-07,3.00875e-24
0.0308626,0.0118519,0.00829076,0.000254964,0.592634,-5.25501e-07,3.68138e-24
0.0311841,0.0117653,0.00831339,0.000260599,0.595092,-5.31798e-07,4.35401e-24
0.0374399,0.0101171,0.0085652,0.000374263,0.635202,-5.95734e-07,2.29388e-24
0.0383631,0.00988694,0.00858575,0.000391386,0.640359,-6.03878e-07,3.44082e-24
0.0392863,0.00965682,0.00860629,0.000408507,0.645515,-6.00954e-07,5.25221e-24
0.0412654,0.0092196,0.0086254,0.000445629,0.655079,-6.0803e-07,1.9385e-24
0.0432445,0.00878236,0.00864451,0.000482749,0.664643,-6.04561e-07,-1.41109e-24
0.0453658,0.00837718,0.00864761,0.000522639,0.673584,-6.02266e-07,-2.60443e-24
0.0608271,0.00610801,0.00856252,0.000809398,0.726751,-4.78721e-07,0
0.0614802,0.00603243,0.00855651,0.00082131,0.728655,-4.70069e-07,0
0.0621332,0.00595686,0.00855049,0.000833223,0.730558,-4.61417e-07,0
0.0649332,0.00568477,0.00852131,0.000883333,0.737865,-4.31815e-07,0
0.0663332,0.00554873,0.00850672,0.000908389,0.741518,-4.17014e-07,0
0.0677332,0.00541267,0.00849213,0.000933443,0.745172,-3.98994e-07,0
0.0707343,0.00516786,0.00845883,0.000985966,0.752217,-3.66367e-07,0
0.0737355,0.00492304,0.00842553,0.00103849,0.759263,-3.32016e-07,0
0.0769523,0.00470262,0.00838883,0.00109339,0.766087,-2.97888e-07,0
0.0801692,0.0044822,0.00835213,0.00114829,0.772911,-2.63413e-07,0
0.0836172,0.0042835,0.0083125,0.00120553,0.779547,-2.29322e-07,0
0.0870652,0.00408479,0.00827286,0.00126277,0.786184,-1.96124e-07,0
0.090761,0.00390537,0.00823059,0.00132232,0.79266,-1.63642e-07,3.56196e-24
0.0944567,0.00372594,0.00818833,0.00138187,0.799137,-1.33112e-07,6.74977e-24
0.0984181,0.00356362,0.0081436,0.00144368,0.805478,-1.03888e-07,3.2804e-24
0.102379,0.00340131,0.00809887,0.0015055,0.811819,-7.74495e-08,1.75454e-25
0.106625,0.00325418,0.00805176,0.00156954,0.818046,-5.30915e-08,5.60208e-25
0.110871,0.00310704,0.00800465,0.00163358,0.824272,-3.21028e-08,5.2992e-25
0.115423,0.00297341,0.00795515,0.00169977,0.8304,-1.41071e-08,1.45148e-25
0.119974,0.00283978,0.00790567,0.00176597,0.836529,3.79177e-10,1.66642e-25
0.124852,0.00271815,0.00785373,0.00183423,0.842575,1.0858e-08,-3.78567e-24
0.12973,0.00259653,0.0078018,0.0019025,0.848622,1.84832e-08,-6.94789e-24
0.134959,0.00248563,0.00774733,0.00197274,0.854599,2.13427e-08,-3.08815e-24
0.140188,0.00237472,0.00769286,0.00204297,0.860576,2.27825e-08,0
0.145792,0.00227339,0.0076357,0.00211504,0.866495,1.91735e-08,0
0.151397,0.00217205,0.00757855,0.00218711,0.872414,1.62658e-08,0
0.157404,0.00207929,0.00751854,0.00226083,0.878285,8.7816e-09,0
0.163411,0.00198654,0.00745853,0.00233456,0.884156,3.93258e-09,0
0.16985,0.00190147,0.00739548,0.00240974,0.889988,-4.54737e-09,0
0.176289,0.0018164,0.00733243,0.00248492,0.895819,-9.22861e-09,0
0.18319,0.00173825,0.00726611,0.00256131,0.901619,-1.65254e-08,0
0.190092,0.0016601,0.00719979,0.0026377,0.907418,-1.9657e-08,0
0.197489,0.00158817,0.00712997,0.002715,0.913191,-2.49863e-08,0
0.204887,0.00151624,0.00706015,0.00279229,0.918964,-2.63383e-08,0
0.212816,0.00144993,0.00698659,0.00287015,0.924716,-2.962e-08,0
0.220745,0.00138362,0.00691303,0.00294801,0.930467,-2.9423e-08,0
0.229244,0.00132239,0.00683545,0.00302603,0.936202,-3.11085e-08,0
0.237743,0.00126116,0.00675788,0.00310404,0.941937,-2.99344e-08,0
0.246853,0.00120453,0.00667602,0.00318174,0.947658,-3.06251e-08,0
0.255962,0.0011479,0.00659417,0.00325945,0.953379,-2.85578e-08,0
0.265727,0.00109544,0.00650775,0.00333631,0.959087,-2.83871e-08,0
0.275491,0.00104298,0.00642133,0.00341317,0.964796,-2.54636e-08,0
0.285957,0.000994321,0.00633007,0.00348858,0.970493,-2.47181e-08,0
0.296423,0.000945659,0.00623881,0.003564,0.97619,-2.16248e-08,0
0.307641,0.000900455,0.00614243,0.00363732,0.981874,-2.11193e-08,0
0.318859,0.000855251,0.00604606,0.00371064,0.987558,-1.86517e-08,0
0.330883,0.000813205,0.00594431,0.00378115,0.993228,-1.90272e-08,-1.56297e-23
0.342907,0.000771159,0.00584256,0.00385167,0.998897,-1.7528e-08,-2.34446e-23
0.355795,0.000732009,0.0057352,0.00391861,1.00455,-1.85138e-08,-8.39329e-24
0.368683,0.00069286,0.00562785,0.00398556,1.0102,-1.77699e-08,-8.6764e-25
0.382498,0.000656376,0.00551472,0.00404817,1.01582,-1.87067e-08,1.48628e-23
0.396312,0.000619892,0.00540159,0.00411079,1.02144,-1.82402e-08,2.2728e-23
0.411119,0.000585877,0.00528259,0.00416833,1.02702,-1.89106e-08,7.57601e-24
0.425926,0.000551863,0.00516359,0.00422587,1.03261,-1.84142e-08,0
0.441797,0.000520155,0.00503876,0.0042777,1.03814,-1.91107e-08,4.33975e-23
0.457668,0.000488447,0.00491393,0.00432952,1.04367,-1.89205e-08,7.97977e-23
0.47468,0.000458921,0.00478352,0.00437517,1.04913,-1.99623e-08,3.8451e-23
0.491692,0.000429395,0.0046531,0.00442082,1.05458,-2.01681e-08,3.77086e-24
0.509926,0.000401968,0.00451765,0.00446017,1.05994,-2.07521e-08,-4.00956e-23
0.52816,0.000374541,0.0043822,0.00449951,1.06529,-2.07499e-08,-7.68893e-23
0.547704,0.000349181,0.0042427,0.00453296,1.0705,-2.04036e-08,-3.50735e-23
0.567248,0.000323821,0.00410319,0.0045664,1.07571,-1.96438e-08,0
0.588197,0.000300553,0.00396126,0.00459513,1.08073,-1.88261e-08,0
0.609146,0.000277284,0.00381933,0.00462385,1.08574,-1.76934e-08,0
0.6316,0.000256203,0.00367749,0.00465006,1.0905,-1.68092e-08,0
0.654054,0.000235122,0.00353564,0.00467627,1.09525,-1.57177e-08,0
0.678122,0.000216398,0.00339752,0.00470323,1.09965,-1.46996e-08,0
0.70219,0.000197675,0.0032594,0.00473019,1.10405,-1.33362e-08,0
0.727987,0.000181555,0.00313001,0.00476174,1.10799,-1.19447e-08,0
0.753784,0.000165435,0.00300061,0.00479328,1.11192,-1.02075e-08,0
0.781436,0.000152221,0.0028863,0.004832,1.11526,-8.97751e-09,0
0.809087,0.000139007,0.00277198,0.00487072,1.1186,-7.6998e-09,0
0.838725,0.000129041,0.00268017,0.00491448,1.1212,-6.03531e-09,-3.67518e-23
0.868363,0.000119074,0.00258836,0.00495826,1.12379,-4.76543e-09,-6.43373e-23
0.900131,0.000112731,0.00252715,0.00499674,1.12548,-2.97017e-09,-3.75445e-23
0.931899,0.000106388,0.00246595,0.00503523,1.12718,-1.29685e-09,-1.743e-23
0.965949,0.000104162,0.00244393,0.00505134,1.12778,-7.79848e-10,4.76797e-23
1,0.000101936,0.00242191,0.00506746,1.12838,0,9.65544e-23
