# Solver information
# Time        	U_solver      	Ux_initial    	Ux_final      	Ux_iters      	Uy_initial    	Uy_final      	Uy_iters      	U_converged   	p_solver      	p_initial     	p_final       	p_iters       	p_converged   
1             	smoothSolver	0.000000e+00	0.000000e+00	0	0.000000e+00	0.000000e+00	0	false	GAMG	9.999970e-01	9.299670e-03	16	true
2             	smoothSolver	1.247090e-02	1.065940e-03	4	6.843980e-01	2.035680e-02	1	false	GAMG	1.000000e+00	9.980930e-03	25	true
3             	smoothSolver	1.982810e-03	1.124170e-04	2	5.434750e-01	3.670530e-02	2	false	GAMG	3.577120e-01	3.400460e-03	19	true
4             	smoothSolver	1.644770e-03	8.420400e-05	2	5.885550e-01	3.076220e-02	2	false	GAMG	2.473190e-01	2.271320e-03	22	true
5             	smoothSolver	1.492560e-03	7.443760e-05	2	5.904120e-01	2.199580e-02	2	false	GAMG	2.652220e-01	2.220700e-03	22	true
6             	smoothSolver	1.380090e-03	6.942690e-05	2	5.025550e-01	1.567660e-02	2	false	GAMG	2.150690e-01	1.944780e-03	20	true
7             	smoothSolver	1.291610e-03	6.599350e-05	2	3.829860e-01	1.370010e-02	2	false	GAMG	1.477330e-01	1.280760e-03	14	true
8             	smoothSolver	1.218780e-03	6.267830e-05	2	2.899970e-01	1.181440e-02	2	false	GAMG	1.096610e-01	9.986450e-04	16	true
9             	smoothSolver	1.155600e-03	5.939910e-05	2	2.648230e-01	9.491760e-03	2	false	GAMG	9.570060e-02	8.082910e-04	20	true
10            	smoothSolver	1.099740e-03	5.656130e-05	2	3.102870e-01	7.930920e-03	2	false	GAMG	8.695300e-02	7.306280e-04	16	true
11            	smoothSolver	1.051220e-03	5.429410e-05	2	3.355330e-01	6.843910e-03	2	false	GAMG	7.716560e-02	7.361880e-04	10	true
12            	smoothSolver	1.011900e-03	5.247650e-05	2	3.108550e-01	6.913630e-03	2	false	GAMG	6.675640e-02	5.522210e-04	7	true
13            	smoothSolver	9.770070e-04	5.086890e-05	2	2.881010e-01	6.229010e-03	2	false	GAMG	6.009700e-02	4.845580e-04	10	true
14            	smoothSolver	9.449130e-04	4.931260e-05	2	2.852160e-01	5.286420e-03	2	false	GAMG	5.707870e-02	5.217670e-04	12	true
15            	smoothSolver	9.150750e-04	4.781770e-05	2	2.883510e-01	2.736160e-02	1	false	GAMG	5.364910e-02	4.760630e-04	13	true
16            	smoothSolver	8.873110e-04	4.642560e-05	2	2.862790e-01	5.823680e-03	2	false	GAMG	4.995900e-02	4.689080e-04	9	true
17            	smoothSolver	8.615040e-04	4.520750e-05	2	2.702790e-01	2.345590e-02	1	false	GAMG	4.466690e-02	3.603890e-04	9	true
18            	smoothSolver	8.373180e-04	4.409760e-05	2	2.562720e-01	1.873800e-02	1	false	GAMG	4.161270e-02	3.413200e-04	6	true
19            	smoothSolver	8.145120e-04	4.309050e-05	2	2.467290e-01	1.309200e-02	1	false	GAMG	3.906030e-02	3.668140e-04	5	true
20            	smoothSolver	7.929500e-04	4.215260e-05	2	2.427260e-01	9.477040e-03	1	false	GAMG	3.698610e-02	2.213100e-04	7	true
21            	smoothSolver	7.725320e-04	4.126240e-05	2	2.353830e-01	7.785410e-03	1	false	GAMG	3.485420e-02	3.033880e-04	7	true
22            	smoothSolver	7.532850e-04	4.041060e-05	2	2.301130e-01	7.984360e-03	1	false	GAMG	3.332300e-02	3.006370e-04	7	true
23            	smoothSolver	7.351100e-04	3.962780e-05	2	2.279290e-01	8.356380e-03	1	false	GAMG	3.180560e-02	2.592350e-04	7	true
24            	smoothSolver	7.177630e-04	3.892250e-05	2	2.244080e-01	9.489820e-03	1	false	GAMG	3.043460e-02	2.568130e-04	5	true
25            	smoothSolver	7.011730e-04	3.829840e-05	2	2.209780e-01	1.117960e-02	1	false	GAMG	2.939400e-02	1.538360e-04	5	true
26            	smoothSolver	6.853120e-04	3.769710e-05	2	2.167500e-01	1.345840e-02	1	false	GAMG	2.850280e-02	2.688260e-04	5	true
27            	smoothSolver	6.701640e-04	3.712640e-05	2	2.123340e-01	1.616290e-02	1	false	GAMG	2.761010e-02	1.972630e-04	6	true
28            	smoothSolver	6.556510e-04	3.658640e-05	2	2.079050e-01	1.863000e-02	1	false	GAMG	2.693470e-02	2.356960e-04	6	true
29            	smoothSolver	6.418390e-04	3.608340e-05	2	2.030680e-01	3.006310e-03	2	false	GAMG	2.616160e-02	2.194300e-04	5	true
30            	smoothSolver	6.288740e-04	3.561950e-05	2	2.005550e-01	1.903110e-02	1	false	GAMG	2.625300e-02	1.574020e-04	5	true
31            	smoothSolver	6.167890e-04	3.516940e-05	2	1.949130e-01	3.096010e-03	2	false	GAMG	2.530600e-02	1.646230e-04	5	true
32            	smoothSolver	6.055330e-04	3.477260e-05	2	1.919110e-01	1.862290e-02	1	false	GAMG	2.538500e-02	2.006480e-04	5	true
33            	smoothSolver	5.947430e-04	3.438530e-05	2	1.845060e-01	2.842190e-03	2	false	GAMG	2.466170e-02	1.978860e-04	5	true
34            	smoothSolver	5.843870e-04	3.402860e-05	2	1.836540e-01	1.624790e-02	1	false	GAMG	2.455520e-02	1.663160e-04	5	true
35            	smoothSolver	5.743930e-04	3.369670e-05	2	1.761460e-01	1.659300e-02	1	false	GAMG	2.395080e-02	1.511540e-04	5	true
36            	smoothSolver	5.647630e-04	3.338640e-05	2	1.697320e-01	1.443310e-02	1	false	GAMG	2.347020e-02	2.305340e-04	4	true
37            	smoothSolver	5.554750e-04	3.308570e-05	2	1.642330e-01	1.188260e-02	1	false	GAMG	2.286900e-02	2.273770e-04	4	true
38            	smoothSolver	5.464970e-04	3.281000e-05	2	1.608370e-01	9.923060e-03	1	false	GAMG	2.234450e-02	1.693450e-04	5	true
39            	smoothSolver	5.378160e-04	3.254260e-05	2	1.572380e-01	8.652500e-03	1	false	GAMG	2.200960e-02	2.090200e-04	4	true
40            	smoothSolver	5.294140e-04	3.228860e-05	2	1.525100e-01	7.656170e-03	1	false	GAMG	2.162730e-02	2.009080e-04	4	true
41            	smoothSolver	5.212710e-04	3.204780e-05	2	1.485420e-01	6.746890e-03	1	false	GAMG	2.123950e-02	1.775950e-04	4	true
42            	smoothSolver	5.133900e-04	3.181270e-05	2	1.439140e-01	5.937610e-03	1	false	GAMG	2.082180e-02	1.599930e-04	4	true
43            	smoothSolver	5.057540e-04	3.159540e-05	2	1.402620e-01	5.454740e-03	1	false	GAMG	2.048490e-02	1.514210e-04	4	true
44            	smoothSolver	4.983530e-04	3.138720e-05	2	1.367670e-01	5.059010e-03	1	false	GAMG	2.021100e-02	1.500110e-04	4	true
45            	smoothSolver	4.911680e-04	3.118300e-05	2	1.331140e-01	4.748360e-03	1	false	GAMG	1.987690e-02	1.492080e-04	4	true
46            	smoothSolver	4.841950e-04	3.098890e-05	2	1.296650e-01	4.610720e-03	1	false	GAMG	1.950950e-02	1.437010e-04	4	true
47            	smoothSolver	4.774330e-04	3.080080e-05	2	1.261160e-01	4.453430e-03	1	false	GAMG	1.911740e-02	1.390230e-04	4	true
48            	smoothSolver	4.708660e-04	3.061720e-05	2	1.227410e-01	4.316030e-03	1	false	GAMG	1.875270e-02	1.339140e-04	4	true
49            	smoothSolver	4.644790e-04	3.043720e-05	2	1.196260e-01	4.440490e-03	1	false	GAMG	1.835910e-02	1.333180e-04	4	true
50            	smoothSolver	4.582690e-04	3.026420e-05	2	1.172370e-01	4.669340e-03	1	false	GAMG	1.796520e-02	1.365470e-04	4	true
51            	smoothSolver	4.522270e-04	3.009570e-05	2	1.149840e-01	4.882720e-03	1	false	GAMG	1.759910e-02	1.386240e-04	4	true
52            	smoothSolver	4.463450e-04	2.993030e-05	2	1.132310e-01	5.065820e-03	1	false	GAMG	1.719950e-02	1.363740e-04	4	true
53            	smoothSolver	4.406300e-04	2.977060e-05	2	1.113100e-01	5.212610e-03	1	false	GAMG	1.676620e-02	1.307150e-04	4	true
54            	smoothSolver	4.350720e-04	2.961550e-05	2	1.091750e-01	5.328830e-03	1	false	GAMG	1.638030e-02	1.249870e-04	4	true
55            	smoothSolver	4.296660e-04	2.946480e-05	2	1.077950e-01	5.423940e-03	1	false	GAMG	1.599270e-02	1.213360e-04	4	true
56            	smoothSolver	4.244030e-04	2.931740e-05	2	1.063570e-01	5.506270e-03	1	false	GAMG	1.561970e-02	1.186900e-04	4	true
57            	smoothSolver	4.192720e-04	2.917260e-05	2	1.050080e-01	5.578810e-03	1	false	GAMG	1.526100e-02	1.151940e-04	4	true
58            	smoothSolver	4.142710e-04	2.903040e-05	2	1.033600e-01	5.638640e-03	1	false	GAMG	1.490070e-02	1.098310e-04	4	true
59            	smoothSolver	4.093940e-04	2.889070e-05	2	1.016030e-01	5.680320e-03	1	false	GAMG	1.454870e-02	1.035220e-04	4	true
60            	smoothSolver	4.046400e-04	2.875350e-05	2	9.975660e-02	5.702720e-03	1	false	GAMG	1.417230e-02	9.793560e-05	4	true
61            	smoothSolver	4.000110e-04	2.861950e-05	2	9.796330e-02	5.705360e-03	1	false	GAMG	1.381110e-02	9.376520e-05	4	true
62            	smoothSolver	3.955030e-04	2.848870e-05	2	9.630710e-02	5.684870e-03	1	false	GAMG	1.345730e-02	9.064900e-05	4	true
63            	smoothSolver	3.911100e-04	2.836020e-05	2	9.463850e-02	5.637620e-03	1	false	GAMG	1.311880e-02	8.759450e-05	4	true
64            	smoothSolver	3.868220e-04	2.823380e-05	2	9.289920e-02	5.558120e-03	1	false	GAMG	1.280780e-02	8.433640e-05	4	true
65            	smoothSolver	3.826360e-04	2.810970e-05	2	9.115790e-02	5.444950e-03	1	false	GAMG	1.249310e-02	8.120400e-05	4	true
66            	smoothSolver	3.785480e-04	2.798760e-05	2	8.948270e-02	5.300260e-03	1	false	GAMG	1.217790e-02	7.870080e-05	4	true
67            	smoothSolver	3.745540e-04	2.786760e-05	2	8.778310e-02	5.125050e-03	1	false	GAMG	1.187050e-02	7.687370e-05	4	true
68            	smoothSolver	3.706520e-04	2.774970e-05	2	8.604550e-02	4.924030e-03	1	false	GAMG	1.156490e-02	7.533150e-05	4	true
69            	smoothSolver	3.668390e-04	2.763370e-05	2	8.428380e-02	4.701940e-03	1	false	GAMG	1.129060e-02	7.375370e-05	4	true
70            	smoothSolver	3.631120e-04	2.751960e-05	2	8.254420e-02	4.462310e-03	1	false	GAMG	1.104780e-02	7.203730e-05	4	true
71            	smoothSolver	3.594690e-04	2.740740e-05	2	8.079800e-02	4.210880e-03	1	false	GAMG	1.081280e-02	7.032320e-05	4	true
72            	smoothSolver	3.559080e-04	2.729710e-05	2	7.907940e-02	3.952280e-03	1	false	GAMG	1.056410e-02	6.873260e-05	4	true
73            	smoothSolver	3.524260e-04	2.718860e-05	2	7.739260e-02	3.694060e-03	1	false	GAMG	1.031530e-02	6.727040e-05	4	true
74            	smoothSolver	3.490210e-04	2.708190e-05	2	7.575440e-02	3.454750e-03	1	false	GAMG	1.007240e-02	6.585920e-05	4	true
75            	smoothSolver	3.456890e-04	2.697690e-05	2	7.414230e-02	3.253360e-03	1	false	GAMG	9.845550e-03	6.440540e-05	4	true
76            	smoothSolver	3.424330e-04	2.687370e-05	2	7.255630e-02	3.103120e-03	1	false	GAMG	9.625160e-03	6.289990e-05	4	true
77            	smoothSolver	3.392560e-04	2.677220e-05	2	7.106510e-02	2.978110e-03	1	false	GAMG	9.411490e-03	6.143130e-05	4	true
78            	smoothSolver	3.361510e-04	2.667230e-05	2	6.957320e-02	2.855670e-03	1	false	GAMG	9.197680e-03	6.008290e-05	4	true
79            	smoothSolver	3.331130e-04	2.657480e-05	2	6.809710e-02	2.737910e-03	1	false	GAMG	8.980330e-03	5.882470e-05	4	true
80            	smoothSolver	3.301400e-04	2.647910e-05	2	6.664160e-02	2.626050e-03	1	false	GAMG	8.760470e-03	5.761330e-05	4	true
81            	smoothSolver	3.272270e-04	2.638480e-05	2	6.531030e-02	2.521080e-03	1	false	GAMG	8.548190e-03	5.641550e-05	4	true
82            	smoothSolver	3.243750e-04	2.629200e-05	2	6.408570e-02	2.423940e-03	1	false	GAMG	8.355120e-03	5.525160e-05	4	true
83            	smoothSolver	3.215810e-04	2.620060e-05	2	6.289410e-02	2.335030e-03	1	false	GAMG	8.164720e-03	5.415060e-05	4	true
84            	smoothSolver	3.188430e-04	2.611080e-05	2	6.175430e-02	2.254320e-03	1	false	GAMG	7.976370e-03	5.311770e-05	4	true
85            	smoothSolver	3.161600e-04	2.602240e-05	2	6.068460e-02	2.181920e-03	1	false	GAMG	7.793320e-03	5.214050e-05	4	true
86            	smoothSolver	3.135300e-04	2.593530e-05	2	5.966210e-02	2.117450e-03	1	false	GAMG	7.612520e-03	5.118160e-05	4	true
87            	smoothSolver	3.109520e-04	2.584960e-05	2	5.864560e-02	2.061350e-03	1	false	GAMG	7.437600e-03	5.022340e-05	4	true
88            	smoothSolver	3.084250e-04	2.576500e-05	2	5.768380e-02	2.012450e-03	1	false	GAMG	7.269370e-03	4.928040e-05	4	true
89            	smoothSolver	3.059470e-04	2.568140e-05	2	5.675870e-02	1.970220e-03	1	false	GAMG	7.106470e-03	4.834550e-05	4	true
90            	smoothSolver	3.035160e-04	2.559900e-05	2	5.585420e-02	1.934170e-03	1	false	GAMG	6.947870e-03	4.742440e-05	4	true
91            	smoothSolver	3.011320e-04	2.551780e-05	2	5.497560e-02	1.903730e-03	1	false	GAMG	6.799290e-03	4.652670e-05	4	true
92            	smoothSolver	2.987930e-04	2.543750e-05	2	5.412080e-02	1.878260e-03	1	false	GAMG	6.653480e-03	4.563780e-05	4	true
93            	smoothSolver	2.964990e-04	2.535830e-05	2	5.331500e-02	1.858100e-03	1	false	GAMG	6.508910e-03	4.476370e-05	4	true
94            	smoothSolver	2.942470e-04	2.528030e-05	2	5.252820e-02	1.841690e-03	1	false	GAMG	6.369160e-03	4.389940e-05	4	true
95            	smoothSolver	2.920370e-04	2.520330e-05	2	5.177630e-02	1.828490e-03	1	false	GAMG	6.238980e-03	4.305500e-05	4	true
96            	smoothSolver	2.898670e-04	2.512740e-05	2	5.106370e-02	1.817870e-03	1	false	GAMG	6.112360e-03	4.223660e-05	4	true
97            	smoothSolver	2.877370e-04	2.505230e-05	2	5.034680e-02	1.809020e-03	1	false	GAMG	5.989580e-03	4.144170e-05	4	true
98            	smoothSolver	2.856460e-04	2.497810e-05	2	4.964980e-02	1.801530e-03	1	false	GAMG	5.871230e-03	4.067810e-05	4	true
99            	smoothSolver	2.835920e-04	2.490480e-05	2	4.897610e-02	1.794920e-03	1	false	GAMG	5.756050e-03	3.994220e-05	4	true
100           	smoothSolver	2.815750e-04	2.483230e-05	2	4.833310e-02	1.788790e-03	1	false	GAMG	5.643890e-03	3.923800e-05	4	true
101           	smoothSolver	2.795930e-04	2.476060e-05	2	4.771160e-02	1.782790e-03	1	false	GAMG	5.535130e-03	3.856900e-05	4	true
102           	smoothSolver	2.776470e-04	2.468960e-05	2	4.711170e-02	1.776590e-03	1	false	GAMG	5.433110e-03	3.793850e-05	4	true
103           	smoothSolver	2.757340e-04	2.461950e-05	2	4.652080e-02	1.769710e-03	1	false	GAMG	5.335850e-03	3.734010e-05	4	true
104           	smoothSolver	2.738540e-04	2.455010e-05	2	4.592990e-02	1.762180e-03	1	false	GAMG	5.241060e-03	3.676460e-05	4	true
105           	smoothSolver	2.720060e-04	2.448150e-05	2	4.535700e-02	1.753770e-03	1	false	GAMG	5.148430e-03	3.621870e-05	4	true
106           	smoothSolver	2.701900e-04	2.441360e-05	2	4.480630e-02	1.744430e-03	1	false	GAMG	5.059280e-03	3.569850e-05	4	true
107           	smoothSolver	2.684050e-04	2.434650e-05	2	4.428720e-02	1.734100e-03	1	false	GAMG	4.972700e-03	3.521460e-05	4	true
108           	smoothSolver	2.666490e-04	2.428010e-05	2	4.378090e-02	1.722630e-03	1	false	GAMG	4.888630e-03	3.475300e-05	4	true
109           	smoothSolver	2.649220e-04	2.421440e-05	2	4.327610e-02	1.710060e-03	1	false	GAMG	4.807300e-03	3.431730e-05	4	true
110           	smoothSolver	2.632240e-04	2.414950e-05	2	4.278610e-02	1.701260e-03	1	false	GAMG	4.727410e-03	3.392450e-05	4	true
111           	smoothSolver	2.615540e-04	2.408530e-05	2	4.229700e-02	1.694460e-03	1	false	GAMG	4.650610e-03	3.356790e-05	4	true
112           	smoothSolver	2.599110e-04	2.402170e-05	2	4.182280e-02	1.686380e-03	1	false	GAMG	4.575610e-03	3.323360e-05	4	true
113           	smoothSolver	2.582940e-04	2.395870e-05	2	4.136280e-02	1.677060e-03	1	false	GAMG	4.502010e-03	3.290670e-05	4	true
114           	smoothSolver	2.567030e-04	2.389640e-05	2	4.092030e-02	1.666570e-03	1	false	GAMG	4.429760e-03	3.258830e-05	4	true
115           	smoothSolver	2.551370e-04	2.383480e-05	2	4.048320e-02	1.655030e-03	1	false	GAMG	4.359100e-03	3.230430e-05	4	true
116           	smoothSolver	2.535960e-04	2.377370e-05	2	4.004540e-02	1.642460e-03	1	false	GAMG	4.289690e-03	3.206880e-05	4	true
117           	smoothSolver	2.520780e-04	2.371320e-05	2	3.960940e-02	1.629000e-03	1	false	GAMG	4.223390e-03	3.181540e-05	4	true
118           	smoothSolver	2.505840e-04	2.365330e-05	2	3.917800e-02	1.614880e-03	1	false	GAMG	4.158140e-03	3.156190e-05	4	true
119           	smoothSolver	2.491140e-04	2.359400e-05	2	3.874990e-02	1.600110e-03	1	false	GAMG	4.095030e-03	3.129910e-05	4	true
120           	smoothSolver	2.476650e-04	2.353520e-05	2	3.832710e-02	1.584600e-03	1	false	GAMG	4.033340e-03	3.106660e-05	4	true
121           	smoothSolver	2.462390e-04	2.347700e-05	2	3.790730e-02	1.568640e-03	1	false	GAMG	3.973030e-03	3.091780e-05	4	true
122           	smoothSolver	2.448330e-04	2.341940e-05	2	3.749630e-02	1.552390e-03	1	false	GAMG	3.915090e-03	3.086360e-05	4	true
123           	smoothSolver	2.434490e-04	2.336220e-05	2	3.709730e-02	1.536140e-03	1	false	GAMG	3.861250e-03	3.086290e-05	4	true
124           	smoothSolver	2.420850e-04	2.330560e-05	2	3.670260e-02	1.519110e-03	1	false	GAMG	3.808540e-03	3.084920e-05	4	true
125           	smoothSolver	2.407410e-04	2.324950e-05	2	3.631490e-02	1.502720e-03	1	false	GAMG	3.758300e-03	3.070160e-05	4	true
126           	smoothSolver	2.394160e-04	2.319390e-05	2	3.593080e-02	1.486780e-03	1	false	GAMG	3.708100e-03	2.999760e-05	4	true
127           	smoothSolver	2.381110e-04	2.313960e-05	2	3.555160e-02	1.470620e-03	1	false	GAMG	3.658310e-03	2.985150e-05	4	true
128           	smoothSolver	2.368240e-04	2.308580e-05	2	3.517570e-02	1.454410e-03	1	false	GAMG	3.610110e-03	2.983750e-05	4	true
129           	smoothSolver	2.355550e-04	2.303250e-05	2	3.480790e-02	1.438050e-03	1	false	GAMG	3.563570e-03	2.998380e-05	4	true
130           	smoothSolver	2.343050e-04	2.297970e-05	2	3.445080e-02	1.422670e-03	1	false	GAMG	3.519120e-03	2.972260e-05	4	true
131           	smoothSolver	2.330710e-04	2.292740e-05	2	3.410860e-02	1.407800e-03	1	false	GAMG	3.478220e-03	2.957450e-05	4	true
132           	smoothSolver	2.318550e-04	2.287560e-05	2	3.376860e-02	1.394650e-03	1	false	GAMG	3.437640e-03	2.989670e-05	4	true
133           	smoothSolver	2.306570e-04	2.282420e-05	2	3.344010e-02	1.381690e-03	1	false	GAMG	3.401400e-03	3.074400e-05	4	true
134           	smoothSolver	2.294750e-04	2.277330e-05	2	3.311820e-02	1.367980e-03	1	false	GAMG	3.358870e-03	3.208250e-05	4	true
135           	smoothSolver	2.283110e-04	2.272290e-05	2	3.280040e-02	1.354560e-03	1	false	GAMG	3.319540e-03	3.180650e-05	4	true
136           	smoothSolver	2.271700e-04	2.267290e-05	2	3.248600e-02	1.343620e-03	1	false	GAMG	3.292200e-03	2.966060e-05	4	true
137           	smoothSolver	2.260500e-04	1.001020e-05	3	3.218500e-02	1.333880e-03	1	false	GAMG	4.983760e-02	3.933760e-04	15	true
138           	smoothSolver	2.249880e-04	1.006110e-05	3	6.236380e-01	1.538650e-02	2	false	GAMG	5.857840e-02	5.494620e-04	16	true
139           	smoothSolver	2.238820e-04	1.007040e-05	3	7.345150e-01	1.506970e-02	2	false	GAMG	5.510110e-02	5.286050e-04	9	true
140           	smoothSolver	2.227740e-04	1.007050e-05	3	6.083450e-01	1.180820e-02	2	false	GAMG	5.343230e-02	5.043000e-04	13	true
141           	smoothSolver	2.216130e-04	1.006310e-05	3	4.996990e-01	4.878780e-02	1	false	GAMG	5.449640e-02	5.153570e-04	15	true
142           	smoothSolver	2.204750e-04	1.005100e-05	3	5.647540e-01	4.406470e-02	1	false	GAMG	5.309630e-02	4.362090e-04	12	true
143           	smoothSolver	2.194170e-04	1.003540e-05	3	5.940030e-01	3.533740e-02	1	false	GAMG	5.145850e-02	4.735920e-04	6	true
144           	smoothSolver	2.183780e-04	1.002170e-05	3	5.755610e-01	2.752050e-02	1	false	GAMG	4.897000e-02	4.850280e-04	7	true
145           	smoothSolver	2.173420e-04	1.001160e-05	3	5.731210e-01	1.799750e-02	1	false	GAMG	4.668890e-02	4.490710e-04	8	true
146           	smoothSolver	2.163050e-04	1.000160e-05	3	5.858380e-01	1.613860e-02	1	false	GAMG	4.529760e-02	3.941100e-04	9	true
147           	smoothSolver	2.152780e-04	9.990980e-06	3	5.848500e-01	1.988130e-02	1	false	GAMG	4.409060e-02	4.120760e-04	8	true
148           	smoothSolver	2.142700e-04	9.978810e-06	3	5.742040e-01	1.793130e-02	1	false	GAMG	4.294800e-02	3.320500e-04	8	true
149           	smoothSolver	2.132820e-04	9.966330e-06	3	5.592080e-01	1.165600e-02	1	false	GAMG	4.198200e-02	3.228870e-04	6	true
150           	smoothSolver	2.123070e-04	9.954630e-06	3	5.566240e-01	1.138750e-02	1	false	GAMG	4.107010e-02	2.939510e-04	5	true
151           	smoothSolver	2.113420e-04	9.943820e-06	3	5.526190e-01	1.545670e-02	1	false	GAMG	3.984360e-02	3.023890e-04	5	true
152           	smoothSolver	2.103880e-04	9.933330e-06	3	5.395270e-01	1.920470e-02	1	false	GAMG	3.872550e-02	2.798570e-04	6	true
153           	smoothSolver	2.094480e-04	9.923020e-06	3	5.236470e-01	2.145490e-02	1	false	GAMG	3.725860e-02	2.925850e-04	6	true
154           	smoothSolver	2.085190e-04	9.912580e-06	3	5.110610e-01	2.332510e-02	1	false	GAMG	3.608260e-02	2.084980e-04	6	true
155           	smoothSolver	2.076010e-04	9.902330e-06	3	5.008430e-01	2.466640e-02	1	false	GAMG	3.584790e-02	1.943070e-04	5	true
156           	smoothSolver	2.066930e-04	9.893640e-06	3	4.895380e-01	2.470730e-02	1	false	GAMG	3.555520e-02	2.297720e-04	5	true
157           	smoothSolver	2.057940e-04	9.884710e-06	3	4.736240e-01	2.262950e-02	1	false	GAMG	3.528970e-02	3.292470e-04	5	true
158           	smoothSolver	2.049050e-04	9.876430e-06	3	4.597470e-01	1.893920e-02	1	false	GAMG	3.449850e-02	2.639330e-04	6	true
159           	smoothSolver	2.040260e-04	9.870080e-06	3	4.493450e-01	1.487300e-02	1	false	GAMG	3.513030e-02	3.113870e-04	6	true
160           	smoothSolver	2.031560e-04	9.863660e-06	3	4.434530e-01	1.241350e-02	1	false	GAMG	3.556340e-02	2.843610e-04	6	true
161           	smoothSolver	2.022940e-04	9.860600e-06	3	4.329650e-01	1.171730e-02	1	false	GAMG	3.637060e-02	2.755640e-04	5	true
162           	smoothSolver	2.014390e-04	9.859350e-06	3	4.207100e-01	1.212650e-02	1	false	GAMG	3.781290e-02	3.383850e-04	4	true
163           	smoothSolver	2.005870e-04	9.857210e-06	3	4.081550e-01	1.263300e-02	1	false	GAMG	3.904740e-02	3.092280e-04	4	true
164           	smoothSolver	1.997470e-04	9.861170e-06	3	3.937010e-01	1.329130e-02	1	false	GAMG	4.444750e-02	3.970200e-04	4	true
165           	smoothSolver	1.989090e-04	9.866640e-06	3	3.749280e-01	1.408260e-02	1	false	GAMG	5.088030e-02	3.246990e-04	5	true
166           	smoothSolver	1.980740e-04	9.871310e-06	3	3.612140e-01	1.503860e-02	1	false	GAMG	5.259140e-02	3.681010e-04	5	true
167           	smoothSolver	1.972510e-04	9.883200e-06	3	3.465130e-01	1.708030e-02	1	false	GAMG	4.981330e-02	3.733940e-04	7	true
168           	smoothSolver	1.964300e-04	9.901000e-06	3	3.358200e-01	1.758920e-02	1	false	GAMG	5.601470e-02	5.588980e-04	6	true
169           	smoothSolver	1.956110e-04	9.925570e-06	3	3.229220e-01	1.695310e-02	1	false	GAMG	6.938470e-02	5.564830e-04	6	true
170           	smoothSolver	1.947860e-04	9.948880e-06	3	3.126780e-01	1.586390e-02	1	false	GAMG	6.912710e-02	4.890060e-04	6	true
171           	smoothSolver	1.939750e-04	9.986350e-06	3	3.000600e-01	1.767940e-02	1	false	GAMG	8.218360e-02	7.351730e-04	5	true
172           	smoothSolver	1.931570e-04	1.003870e-05	3	2.938740e-01	1.661440e-02	1	false	GAMG	9.068370e-02	7.436060e-04	7	true
173           	smoothSolver	1.923250e-04	1.009290e-05	3	3.007040e-01	1.987300e-02	1	false	GAMG	1.008590e-01	9.652850e-04	6	true
174           	smoothSolver	1.914980e-04	1.017280e-05	3	3.017850e-01	2.101060e-02	1	false	GAMG	1.236620e-01	1.089560e-03	7	true
175           	smoothSolver	1.906450e-04	1.026010e-05	3	3.172120e-01	2.477810e-02	1	false	GAMG	1.353510e-01	1.108030e-03	9	true
176           	smoothSolver	1.898700e-04	1.034350e-05	3	3.187030e-01	2.822170e-02	1	false	GAMG	1.459070e-01	1.309800e-03	7	true
177           	smoothSolver	1.891320e-04	1.048090e-05	3	3.033440e-01	8.900830e-03	2	false	GAMG	1.328940e-01	1.271030e-03	8	true
178           	smoothSolver	1.888570e-04	1.063430e-05	3	3.094370e-01	2.823820e-02	1	false	GAMG	1.430200e-01	1.116680e-03	5	true
179           	smoothSolver	1.886020e-04	1.080370e-05	3	3.197110e-01	9.314160e-03	2	false	GAMG	1.697220e-01	1.359960e-03	5	true
180           	smoothSolver	1.892240e-04	1.104780e-05	3	3.331440e-01	9.131850e-03	2	false	GAMG	1.567410e-01	1.051700e-03	8	true
181           	smoothSolver	1.896070e-04	1.133280e-05	3	3.657210e-01	1.226580e-02	2	false	GAMG	1.734840e-01	1.418970e-03	8	true
182           	smoothSolver	1.909300e-04	1.169230e-05	3	3.753250e-01	1.732810e-02	2	false	GAMG	1.839260e-01	1.112740e-03	8	true
183           	smoothSolver	1.915360e-04	1.219910e-05	3	3.896030e-01	1.358140e-02	2	false	GAMG	1.612790e-01	1.359560e-03	12	true
184           	smoothSolver	1.956160e-04	1.281700e-05	3	3.949490e-01	1.510620e-02	2	false	GAMG	1.920870e-01	1.540630e-03	9	true
185           	smoothSolver	2.000490e-04	1.359320e-05	3	3.954880e-01	2.156580e-02	2	false	GAMG	1.990930e-01	1.660340e-03	9	true
186           	smoothSolver	2.044980e-04	1.454930e-05	3	3.850570e-01	2.263000e-02	2	false	GAMG	1.755600e-01	1.313110e-03	12	true
187           	smoothSolver	2.099710e-04	1.571480e-05	3	3.970560e-01	2.425740e-02	2	false	GAMG	1.963630e-01	1.768310e-03	6	true
188           	smoothSolver	2.175120e-04	1.707680e-05	3	4.477630e-01	2.444350e-02	2	false	GAMG	2.327840e-01	1.528840e-03	7	true
189           	smoothSolver	2.290040e-04	1.871220e-05	3	4.954850e-01	1.957970e-02	2	false	GAMG	2.510250e-01	1.857890e-03	5	true
190           	smoothSolver	2.362890e-04	2.042810e-05	3	4.787380e-01	2.543290e-02	2	false	GAMG	2.363830e-01	2.031280e-03	4	true
191           	smoothSolver	2.443660e-04	2.222030e-05	3	4.727550e-01	2.769970e-02	2	false	GAMG	1.873510e-01	1.467840e-03	5	true
192           	smoothSolver	2.542730e-04	2.448690e-05	3	4.919450e-01	2.964000e-02	2	false	GAMG	1.814360e-01	1.325370e-03	9	true
193           	smoothSolver	2.688520e-04	1.773910e-05	4	4.998340e-01	2.558760e-02	2	false	GAMG	1.966080e-01	1.945360e-03	10	true
194           	smoothSolver	2.848220e-04	2.006960e-05	4	5.399640e-01	3.464350e-02	2	false	GAMG	1.889620e-01	1.686670e-03	8	true
195           	smoothSolver	3.004690e-04	2.260680e-05	4	5.858030e-01	3.806340e-02	2	false	GAMG	2.230310e-01	1.695680e-03	10	true
196           	smoothSolver	3.189480e-04	2.554800e-05	4	5.910680e-01	3.190820e-02	2	false	GAMG	2.206700e-01	1.386060e-03	10	true
197           	smoothSolver	3.423720e-04	2.960820e-05	4	5.868090e-01	3.082270e-02	2	false	GAMG	2.571850e-01	2.243930e-03	6	true
198           	smoothSolver	3.692640e-04	3.367620e-05	4	5.803900e-01	4.176070e-02	2	false	GAMG	2.692830e-01	2.510870e-03	7	true
199           	smoothSolver	3.952110e-04	3.799840e-05	4	5.633150e-01	4.145520e-02	2	false	GAMG	2.677350e-01	2.243320e-03	7	true
200           	smoothSolver	4.140220e-04	3.162230e-05	5	6.471550e-01	5.193720e-02	2	false	GAMG	2.609940e-01	2.560040e-03	6	true
201           	smoothSolver	4.469940e-04	3.637670e-05	5	6.070610e-01	3.910510e-02	2	false	GAMG	2.548380e-01	2.394030e-03	5	true
202           	smoothSolver	4.726520e-04	4.157830e-05	5	6.013280e-01	3.821150e-02	2	false	GAMG	2.453300e-01	1.780410e-03	7	true
203           	smoothSolver	4.995950e-04	4.716070e-05	5	5.952510e-01	4.432630e-02	2	false	GAMG	2.478040e-01	2.434570e-03	7	true
204           	smoothSolver	5.270120e-04	5.232330e-05	5	6.257190e-01	4.404410e-02	2	false	GAMG	2.304870e-01	2.303290e-03	7	true
205           	smoothSolver	5.657370e-04	4.469430e-05	6	5.064420e-01	3.500890e-02	2	false	GAMG	2.295800e-01	1.420330e-03	8	true
206           	smoothSolver	5.966940e-04	5.024140e-05	6	5.355710e-01	4.067820e-02	2	false	GAMG	2.124720e-01	1.662640e-03	8	true
207           	smoothSolver	6.464530e-04	5.571770e-05	6	5.782980e-01	5.183120e-02	2	false	GAMG	2.125750e-01	2.117910e-03	9	true
208           	smoothSolver	6.921110e-04	6.176820e-05	6	5.673570e-01	5.427570e-02	2	false	GAMG	2.507730e-01	2.494970e-03	10	true
209           	smoothSolver	7.355790e-04	6.862790e-05	6	5.432020e-01	3.408480e-02	3	false	GAMG	2.333890e-01	2.110820e-03	12	true
210           	smoothSolver	7.679540e-04	7.488160e-05	6	5.558320e-01	3.994390e-02	3	false	GAMG	2.421830e-01	1.669810e-03	12	true
211           	smoothSolver	8.155070e-04	6.388740e-05	7	5.226560e-01	3.644330e-02	3	false	GAMG	2.085190e-01	1.640710e-03	10	true
212           	smoothSolver	8.607950e-04	7.068530e-05	7	4.917480e-01	3.070420e-02	3	false	GAMG	1.967840e-01	1.942790e-03	12	true
213           	smoothSolver	9.329800e-04	7.833560e-05	7	4.956560e-01	3.809910e-02	3	false	GAMG	2.301920e-01	2.050780e-03	13	true
214           	smoothSolver	9.884530e-04	8.580510e-05	7	4.596230e-01	3.734990e-02	3	false	GAMG	2.284380e-01	1.904900e-03	13	true
215           	smoothSolver	1.042070e-03	9.278470e-05	7	4.807570e-01	3.652990e-02	3	false	GAMG	2.446400e-01	2.221730e-03	8	true
216           	smoothSolver	1.103140e-03	1.011160e-04	7	4.584610e-01	3.444390e-02	3	false	GAMG	2.340440e-01	1.896080e-03	8	true
217           	smoothSolver	1.153840e-03	1.084370e-04	7	4.669130e-01	4.610670e-02	2	false	GAMG	2.293540e-01	1.596810e-03	8	true
218           	smoothSolver	1.208770e-03	1.164440e-04	7	4.735590e-01	2.810800e-02	3	false	GAMG	2.145910e-01	1.766410e-03	8	true
219           	smoothSolver	1.274450e-03	1.245000e-04	7	4.688740e-01	3.049680e-02	3	false	GAMG	2.064580e-01	1.734310e-03	7	true
220           	smoothSolver	1.341980e-03	1.333040e-04	7	4.403690e-01	3.546920e-02	3	false	GAMG	2.055290e-01	1.985150e-03	8	true
221           	smoothSolver	1.410820e-03	1.125500e-04	8	4.398690e-01	4.040640e-02	3	false	GAMG	2.084490e-01	1.934960e-03	9	true
222           	smoothSolver	1.511100e-03	1.208630e-04	8	4.741110e-01	4.096280e-02	3	false	GAMG	2.520760e-01	2.512640e-03	9	true
223           	smoothSolver	1.600570e-03	1.286370e-04	8	4.313060e-01	3.198060e-02	4	false	GAMG	2.280750e-01	2.012540e-03	10	true
224           	smoothSolver	1.664230e-03	1.361180e-04	8	4.021920e-01	2.874080e-02	4	false	GAMG	2.051540e-01	1.920680e-03	8	true
225           	smoothSolver	1.749210e-03	1.440450e-04	8	3.917800e-01	3.738700e-02	3	false	GAMG	2.117870e-01	1.657110e-03	7	true
226           	smoothSolver	1.825610e-03	1.511930e-04	8	3.703310e-01	3.503610e-02	3	false	GAMG	1.983450e-01	1.975780e-03	7	true
227           	smoothSolver	1.906810e-03	1.590400e-04	8	3.656280e-01	2.981290e-02	4	false	GAMG	1.999790e-01	1.888410e-03	9	true
228           	smoothSolver	1.987710e-03	1.669540e-04	8	3.743820e-01	3.028210e-02	4	false	GAMG	1.914960e-01	1.906590e-03	11	true
229           	smoothSolver	2.075300e-03	1.745220e-04	8	3.543880e-01	3.104870e-02	4	false	GAMG	1.810550e-01	1.800970e-03	11	true
230           	smoothSolver	2.165690e-03	1.820290e-04	8	3.815640e-01	3.142310e-02	4	false	GAMG	2.156730e-01	2.034400e-03	13	true
231           	smoothSolver	2.252370e-03	1.900160e-04	8	3.508930e-01	3.063430e-02	4	false	GAMG	2.080870e-01	1.767010e-03	11	true
232           	smoothSolver	2.351590e-03	1.976160e-04	8	3.650420e-01	2.837860e-02	4	false	GAMG	2.309810e-01	2.289230e-03	11	true