# Solver information
# Time        	U_solver      	Ux_initial    	Ux_final      	Ux_iters      	Uy_initial    	Uy_final      	Uy_iters      	U_converged   	p_solver      	p_initial     	p_final       	p_iters       	p_converged   
1             	smoothSolver	0.000000e+00	0.000000e+00	0	0.000000e+00	0.000000e+00	0	false	GAMG	9.999940e-01	6.456760e-03	5	true
2             	smoothSolver	8.447870e-02	8.135340e-03	4	1.000000e+00	3.589370e-02	2	false	GAMG	1.000000e+00	9.104010e-03	4	true
3             	smoothSolver	3.620010e-02	1.981970e-03	3	6.405440e-01	3.529030e-02	2	false	GAMG	1.919760e-01	1.243800e-03	6	true
4             	smoothSolver	2.137810e-02	2.023680e-03	3	5.381130e-01	4.325690e-02	2	false	GAMG	1.378650e-01	9.324830e-04	6	true
5             	smoothSolver	1.597090e-02	1.219200e-03	4	4.782810e-01	2.638880e-02	3	false	GAMG	1.218350e-01	1.086840e-03	5	true
6             	smoothSolver	1.338800e-02	1.251090e-03	4	5.015300e-01	2.878370e-02	3	false	GAMG	1.134430e-01	7.093100e-04	5	true
7             	smoothSolver	1.170650e-02	7.751900e-04	5	5.090120e-01	3.310530e-02	3	false	GAMG	1.138490e-01	6.447800e-04	5	true
8             	smoothSolver	1.064270e-02	7.920570e-04	5	4.563740e-01	3.636930e-02	3	false	GAMG	1.056330e-01	5.917750e-04	6	true
9             	smoothSolver	9.990030e-03	8.230970e-04	5	4.096970e-01	3.476060e-02	3	false	GAMG	9.765100e-02	7.518420e-04	6	true
10            	smoothSolver	9.538960e-03	8.403980e-04	5	3.649950e-01	3.514840e-02	3	false	GAMG	9.002250e-02	8.090690e-04	6	true
11            	smoothSolver	9.004200e-03	8.430100e-04	5	3.151850e-01	2.133000e-02	4	false	GAMG	9.023390e-02	5.647170e-04	7	true
12            	smoothSolver	8.620050e-03	8.465320e-04	5	3.104720e-01	2.166300e-02	4	false	GAMG	8.729080e-02	6.585260e-04	7	true
13            	smoothSolver	8.394940e-03	5.460330e-04	6	2.793890e-01	2.088710e-02	4	false	GAMG	8.693410e-02	6.460010e-04	7	true
14            	smoothSolver	8.303250e-03	5.504020e-04	6	2.842850e-01	2.267280e-02	4	false	GAMG	9.174490e-02	7.021140e-04	7	true
15            	smoothSolver	8.251080e-03	5.535800e-04	6	2.720160e-01	2.423920e-02	4	false	GAMG	8.036740e-02	7.070090e-04	7	true
16            	smoothSolver	8.170610e-03	5.529430e-04	6	2.554340e-01	2.458580e-02	4	false	GAMG	7.524390e-02	6.157380e-04	7	true
17            	smoothSolver	8.108330e-03	5.534730e-04	6	2.450990e-01	1.550820e-02	5	false	GAMG	6.588740e-02	4.673230e-04	7	true
18            	smoothSolver	8.035100e-03	5.538390e-04	6	2.414400e-01	2.321960e-02	4	false	GAMG	5.627230e-02	5.308760e-04	7	true
19            	smoothSolver	7.916500e-03	5.496870e-04	6	2.265940e-01	2.265170e-02	4	false	GAMG	5.681430e-02	5.628420e-04	7	true
20            	smoothSolver	7.827560e-03	5.481820e-04	6	2.270050e-01	2.201550e-02	4	false	GAMG	5.246250e-02	4.950100e-04	7	true
21            	smoothSolver	7.721420e-03	5.446010e-04	6	2.142680e-01	1.384870e-02	5	false	GAMG	5.160480e-02	4.489180e-04	7	true
22            	smoothSolver	7.598540e-03	5.396780e-04	6	2.033710e-01	2.033200e-02	4	false	GAMG	5.017570e-02	3.793110e-04	7	true
23            	smoothSolver	7.496830e-03	5.353430e-04	6	1.952060e-01	1.846220e-02	4	false	GAMG	4.941800e-02	3.172550e-04	7	true
24            	smoothSolver	7.361650e-03	5.281460e-04	6	1.739440e-01	1.648590e-02	4	false	GAMG	4.470180e-02	4.252260e-04	6	true
25            	smoothSolver	7.247890e-03	5.222530e-04	6	1.560290e-01	1.544600e-02	4	false	GAMG	3.940990e-02	3.780350e-04	7	true
26            	smoothSolver	7.117600e-03	5.155860e-04	6	1.517050e-01	1.495250e-02	4	false	GAMG	4.013760e-02	3.541080e-04	7	true
27            	smoothSolver	6.981560e-03	5.080350e-04	6	1.421510e-01	1.396270e-02	4	false	GAMG	4.013920e-02	3.948760e-04	6	true
28            	smoothSolver	6.848220e-03	5.004350e-04	6	1.301530e-01	8.687050e-03	5	false	GAMG	3.938840e-02	3.567890e-04	7	true
29            	smoothSolver	6.717990e-03	4.927140e-04	6	1.159310e-01	7.997250e-03	5	false	GAMG	3.728720e-02	3.381740e-04	7	true
30            	smoothSolver	6.592920e-03	4.851570e-04	6	1.117030e-01	7.805010e-03	5	false	GAMG	3.787660e-02	3.732620e-04	6	true
31            	smoothSolver	6.468680e-03	4.775030e-04	6	1.013100e-01	7.291270e-03	5	false	GAMG	3.775460e-02	3.541320e-04	6	true
32            	smoothSolver	6.341580e-03	4.694460e-04	6	9.826810e-02	7.180920e-03	5	false	GAMG	3.997850e-02	3.695790e-04	6	true
33            	smoothSolver	6.223440e-03	4.621080e-04	6	9.351510e-02	6.854930e-03	5	false	GAMG	4.173610e-02	3.474420e-04	7	true
34            	smoothSolver	6.110080e-03	4.552020e-04	6	8.504970e-02	6.417090e-03	5	false	GAMG	4.571650e-02	3.480470e-04	6	true
35            	smoothSolver	5.994450e-03	4.481310e-04	6	7.856140e-02	6.035590e-03	5	false	GAMG	4.906690e-02	4.557200e-04	6	true
36            	smoothSolver	5.888610e-03	4.416680e-04	6	7.390210e-02	5.557440e-03	5	false	GAMG	5.238760e-02	4.248870e-04	6	true
37            	smoothSolver	5.783930e-03	4.352320e-04	6	6.829270e-02	5.111960e-03	5	false	GAMG	5.340590e-02	3.657740e-04	6	true
38            	smoothSolver	5.689160e-03	4.295130e-04	6	6.378880e-02	4.806920e-03	5	false	GAMG	6.115720e-02	3.749570e-04	6	true
39            	smoothSolver	5.599420e-03	4.240110e-04	6	5.825570e-02	4.464590e-03	5	false	GAMG	5.743820e-02	5.472520e-04	5	true
40            	smoothSolver	5.516500e-03	4.189590e-04	6	5.419760e-02	4.082450e-03	5	false	GAMG	4.941880e-02	4.515270e-04	5	true
41            	smoothSolver	5.436510e-03	4.141870e-04	6	5.044100e-02	3.718090e-03	5	false	GAMG	4.823960e-02	3.861660e-04	5	true
42            	smoothSolver	5.363530e-03	4.098240e-04	6	4.926860e-02	3.656190e-03	5	false	GAMG	4.355690e-02	3.610950e-04	5	true
43            	smoothSolver	5.295740e-03	4.057880e-04	6	4.450180e-02	3.373900e-03	5	false	GAMG	3.936490e-02	3.261760e-04	5	true
44            	smoothSolver	5.231680e-03	4.020420e-04	6	4.320810e-02	3.204930e-03	5	false	GAMG	3.654540e-02	2.834540e-04	5	true
45            	smoothSolver	5.176110e-03	3.988880e-04	6	4.136400e-02	3.298930e-03	5	false	GAMG	3.440770e-02	2.735080e-04	5	true
46            	smoothSolver	5.123280e-03	3.959040e-04	6	4.022240e-02	3.273430e-03	5	false	GAMG	3.157800e-02	3.029650e-04	5	true
47            	smoothSolver	5.073760e-03	3.931160e-04	6	3.847900e-02	3.190320e-03	5	false	GAMG	2.770170e-02	2.560810e-04	5	true
48            	smoothSolver	5.027510e-03	3.905430e-04	6	3.826450e-02	3.098560e-03	5	false	GAMG	2.756820e-02	2.150490e-04	5	true
49            	smoothSolver	4.983660e-03	3.881420e-04	6	3.604640e-02	2.976210e-03	5	false	GAMG	2.451220e-02	2.185450e-04	5	true
50            	smoothSolver	4.942030e-03	3.859180e-04	6	3.412820e-02	2.855670e-03	5	false	GAMG	2.282300e-02	1.989850e-04	5	true
51            	smoothSolver	4.903550e-03	3.838960e-04	6	3.295890e-02	2.862430e-03	5	false	GAMG	2.047370e-02	1.906890e-04	5	true
52            	smoothSolver	4.866710e-03	3.820100e-04	6	3.230630e-02	2.809840e-03	5	false	GAMG	2.040900e-02	1.989090e-04	5	true
53            	smoothSolver	4.832870e-03	3.802800e-04	6	3.116320e-02	2.900590e-03	5	false	GAMG	1.778620e-02	1.684120e-04	5	true
54            	smoothSolver	4.799620e-03	3.786030e-04	6	3.139410e-02	2.984560e-03	5	false	GAMG	1.633890e-02	1.553610e-04	5	true
55            	smoothSolver	4.769960e-03	3.771520e-04	6	3.089070e-02	2.959010e-03	5	false	GAMG	1.468120e-02	1.253790e-04	6	true
56            	smoothSolver	4.740720e-03	3.757210e-04	6	3.071210e-02	2.893160e-03	5	false	GAMG	1.440570e-02	1.040130e-04	6	true
57            	smoothSolver	4.713300e-03	3.744200e-04	6	3.113050e-02	2.914430e-03	5	false	GAMG	1.559000e-02	9.431850e-05	6	true
58            	smoothSolver	4.687670e-03	3.732570e-04	6	2.911490e-02	2.750720e-03	5	false	GAMG	1.352730e-02	1.332840e-04	6	true
59            	smoothSolver	4.663120e-03	3.721210e-04	6	2.968410e-02	2.844940e-03	5	false	GAMG	1.245420e-02	1.206900e-04	6	true
60            	smoothSolver	4.640840e-03	3.711520e-04	6	3.014470e-02	2.944340e-03	5	false	GAMG	1.358530e-02	1.032830e-04	6	true
61            	smoothSolver	4.619520e-03	3.702440e-04	6	2.904590e-02	2.888490e-03	5	false	GAMG	1.106410e-02	7.981020e-05	7	true
62            	smoothSolver	4.600010e-03	3.693890e-04	6	2.953680e-02	2.938850e-03	5	false	GAMG	1.225450e-02	1.025630e-04	6	true
63            	smoothSolver	4.581680e-03	3.685650e-04	6	2.902290e-02	2.882110e-03	5	false	GAMG	1.116550e-02	8.699340e-05	7	true
64            	smoothSolver	4.564210e-03	3.677810e-04	6	2.946850e-02	2.830710e-03	5	false	GAMG	1.097860e-02	6.407790e-05	8	true
65            	smoothSolver	4.548770e-03	3.671170e-04	6	2.785410e-02	1.849760e-03	6	false	GAMG	1.141060e-02	7.297650e-05	6	true
66            	smoothSolver	4.534400e-03	3.665470e-04	6	2.722820e-02	1.831560e-03	6	false	GAMG	1.134480e-02	7.872630e-05	6	true
67            	smoothSolver	4.520480e-03	3.660380e-04	6	2.682550e-02	1.809600e-03	6	false	GAMG	1.036520e-02	7.727310e-05	6	true
68            	smoothSolver	4.507480e-03	3.655760e-04	6	2.772990e-02	1.829210e-03	6	false	GAMG	1.120280e-02	8.766940e-05	7	true
69            	smoothSolver	4.495910e-03	3.652140e-04	6	2.807830e-02	1.851230e-03	6	false	GAMG	9.988790e-03	8.782050e-05	6	true
70            	smoothSolver	4.484800e-03	3.648630e-04	6	2.768480e-02	1.830690e-03	6	false	GAMG	1.069780e-02	8.992780e-05	7	true
71            	smoothSolver	4.474500e-03	3.645680e-04	6	2.788750e-02	1.848820e-03	6	false	GAMG	9.647390e-03	6.623420e-05	8	true
72            	smoothSolver	4.464840e-03	3.642950e-04	6	2.752360e-02	1.849330e-03	6	false	GAMG	1.005590e-02	9.388130e-05	6	true
73            	smoothSolver	4.455940e-03	3.640430e-04	6	2.803090e-02	1.854830e-03	6	false	GAMG	1.057800e-02	9.895080e-05	6	true
74            	smoothSolver	4.448440e-03	3.638260e-04	6	2.751340e-02	1.871090e-03	6	false	GAMG	1.034230e-02	9.619920e-05	6	true
75            	smoothSolver	4.441320e-03	3.636060e-04	6	2.701080e-02	1.878760e-03	6	false	GAMG	9.822020e-03	9.595100e-05	8	true
76            	smoothSolver	4.435400e-03	3.634730e-04	6	2.719530e-02	1.850780e-03	6	false	GAMG	9.603680e-03	8.513600e-05	8	true
77            	smoothSolver	4.428670e-03	3.632750e-04	6	2.663070e-02	1.823260e-03	6	false	GAMG	1.097100e-02	9.818410e-05	7	true
78            	smoothSolver	4.423640e-03	3.631650e-04	6	2.751010e-02	1.860940e-03	6	false	GAMG	1.049670e-02	9.038210e-05	8	true
79            	smoothSolver	4.419120e-03	3.630570e-04	6	2.748850e-02	1.832740e-03	6	false	GAMG	1.008170e-02	7.377490e-05	7	true
80            	smoothSolver	4.415210e-03	3.630060e-04	6	2.783000e-02	1.846160e-03	6	false	GAMG	1.127140e-02	8.062630e-05	6	true
81            	smoothSolver	4.411000e-03	3.629380e-04	6	2.874210e-02	2.842220e-03	5	false	GAMG	1.254180e-02	9.855320e-05	8	true
82            	smoothSolver	4.407450e-03	3.629520e-04	6	2.936340e-02	2.865270e-03	5	false	GAMG	1.191560e-02	1.007330e-04	7	true
83            	smoothSolver	4.404430e-03	3.629790e-04	6	2.900980e-02	2.886510e-03	5	false	GAMG	1.186280e-02	1.185000e-04	6	true
84            	smoothSolver	4.401270e-03	3.629720e-04	6	2.916790e-02	2.891080e-03	5	false	GAMG	1.213480e-02	1.063240e-04	6	true
85            	smoothSolver	4.398110e-03	3.629330e-04	6	2.931100e-02	2.840980e-03	5	false	GAMG	1.203040e-02	1.160790e-04	9	true
86            	smoothSolver	4.395600e-03	3.629530e-04	6	2.939490e-02	2.856400e-03	5	false	GAMG	1.177960e-02	8.261660e-05	6	true
87            	smoothSolver	4.393260e-03	3.629570e-04	6	2.894160e-02	1.903570e-03	6	false	GAMG	1.227100e-02	8.229070e-05	6	true
88            	smoothSolver	4.391690e-03	3.629860e-04	6	2.957950e-02	2.850190e-03	5	false	GAMG	1.182900e-02	1.128320e-04	6	true
89            	smoothSolver	4.389850e-03	3.629530e-04	6	3.091620e-02	2.946170e-03	5	false	GAMG	1.274380e-02	1.139050e-04	7	true
90            	smoothSolver	4.388480e-03	3.629800e-04	6	3.066410e-02	2.858990e-03	5	false	GAMG	1.242640e-02	1.189970e-04	6	true
91            	smoothSolver	4.387150e-03	3.629480e-04	6	2.976900e-02	2.876940e-03	5	false	GAMG	1.156760e-02	8.352080e-05	9	true
92            	smoothSolver	4.385870e-03	3.629380e-04	6	2.935340e-02	2.802630e-03	5	false	GAMG	1.322120e-02	1.095430e-04	6	true
93            	smoothSolver	4.384810e-03	3.629430e-04	6	3.066210e-02	2.827060e-03	5	false	GAMG	1.421280e-02	1.007780e-04	6	true
94            	smoothSolver	4.383810e-03	3.629270e-04	6	3.139730e-02	3.021850e-03	5	false	GAMG	1.399310e-02	1.037350e-04	6	true
95            	smoothSolver	4.383130e-03	3.629170e-04	6	3.018130e-02	2.952390e-03	5	false	GAMG	1.419790e-02	1.087050e-04	6	true
96            	smoothSolver	4.382100e-03	3.628950e-04	6	2.961350e-02	2.761710e-03	5	false	GAMG	1.504930e-02	1.492420e-04	6	true
97            	smoothSolver	4.381000e-03	3.628620e-04	6	3.028430e-02	2.853680e-03	5	false	GAMG	1.496770e-02	1.028320e-04	6	true
98            	smoothSolver	4.380490e-03	3.628350e-04	6	3.005100e-02	2.714540e-03	5	false	GAMG	1.450700e-02	1.280930e-04	6	true
99            	smoothSolver	4.379560e-03	3.627600e-04	6	3.173740e-02	2.784890e-03	5	false	GAMG	1.456740e-02	1.096990e-04	6	true
100           	smoothSolver	4.377930e-03	3.626480e-04	6	3.155180e-02	2.766520e-03	5	false	GAMG	1.527480e-02	1.012930e-04	6	true
101           	smoothSolver	4.376960e-03	3.625420e-04	6	3.205880e-02	2.709350e-03	5	false	GAMG	1.625790e-02	1.546820e-04	5	true
102           	smoothSolver	4.375750e-03	3.624230e-04	6	3.222830e-02	2.711310e-03	5	false	GAMG	1.811590e-02	1.527580e-04	5	true
103           	smoothSolver	4.374460e-03	3.623260e-04	6	3.182330e-02	2.684620e-03	5	false	GAMG	1.779520e-02	1.364420e-04	6	true
104           	smoothSolver	4.372890e-03	3.621870e-04	6	3.480000e-02	2.807330e-03	5	false	GAMG	1.999650e-02	1.469870e-04	6	true
105           	smoothSolver	4.371200e-03	3.620170e-04	6	3.266440e-02	2.806630e-03	5	false	GAMG	1.939490e-02	1.778170e-04	6	true
106           	smoothSolver	4.369120e-03	3.618100e-04	6	3.475980e-02	2.733500e-03	5	false	GAMG	2.116170e-02	1.771220e-04	6	true
107           	smoothSolver	4.367890e-03	3.616410e-04	6	3.656320e-02	2.702620e-03	5	false	GAMG	2.484090e-02	2.466830e-04	5	true
108           	smoothSolver	4.366020e-03	3.614410e-04	6	3.479010e-02	2.739010e-03	5	false	GAMG	2.243520e-02	2.222170e-04	5	true
109           	smoothSolver	4.364060e-03	3.612550e-04	6	3.637280e-02	2.910860e-03	5	false	GAMG	2.341910e-02	1.655970e-04	6	true
110           	smoothSolver	4.361210e-03	3.609740e-04	6	3.685580e-02	2.730230e-03	5	false	GAMG	2.527240e-02	1.355930e-04	6	true
111           	smoothSolver	4.359550e-03	3.607600e-04	6	3.496230e-02	2.781300e-03	5	false	GAMG	2.413730e-02	2.241650e-04	5	true
112           	smoothSolver	4.357310e-03	3.604930e-04	6	3.615540e-02	2.838900e-03	5	false	GAMG	2.762360e-02	2.338510e-04	5	true
113           	smoothSolver	4.354540e-03	3.602150e-04	6	3.780280e-02	2.743710e-03	5	false	GAMG	2.772420e-02	2.470090e-04	5	true
114           	smoothSolver	4.351750e-03	3.599090e-04	6	3.738620e-02	2.648570e-03	5	false	GAMG	2.981490e-02	2.484840e-04	5	true
115           	smoothSolver	4.349290e-03	3.596040e-04	6	3.821510e-02	2.820190e-03	5	false	GAMG	3.209270e-02	2.414740e-04	5	true
116           	smoothSolver	4.346400e-03	3.592670e-04	6	3.891290e-02	2.755420e-03	5	false	GAMG	3.557940e-02	2.724290e-04	5	true
117           	smoothSolver	4.342960e-03	3.589270e-04	6	3.876100e-02	2.905100e-03	5	false	GAMG	3.325630e-02	2.451120e-04	5	true
118           	smoothSolver	4.340540e-03	3.586380e-04	6	4.014050e-02	2.829980e-03	5	false	GAMG	3.572580e-02	3.519090e-04	5	true
119           	smoothSolver	4.336420e-03	3.582340e-04	6	4.155130e-02	2.823340e-03	5	false	GAMG	3.871870e-02	3.815590e-04	5	true
120           	smoothSolver	4.332590e-03	3.577950e-04	6	4.502430e-02	2.989550e-03	5	false	GAMG	4.466980e-02	3.070090e-04	5	true
121           	smoothSolver	4.328700e-03	3.573280e-04	6	4.648700e-02	4.387930e-03	4	false	GAMG	4.620330e-02	4.069460e-04	5	true
122           	smoothSolver	4.324330e-03	3.569000e-04	6	4.840950e-02	4.555330e-03	4	false	GAMG	4.887270e-02	3.585430e-04	5	true
123           	smoothSolver	4.320450e-03	3.564430e-04	6	4.725290e-02	4.650330e-03	4	false	GAMG	4.797990e-02	4.752760e-04	5	true
124           	smoothSolver	4.316150e-03	3.560100e-04	6	4.941550e-02	4.722460e-03	4	false	GAMG	5.400220e-02	5.084620e-04	5	true
125           	smoothSolver	4.311390e-03	3.554850e-04	6	5.043830e-02	4.619000e-03	4	false	GAMG	5.235880e-02	4.327990e-04	5	true
126           	smoothSolver	4.306540e-03	3.549630e-04	6	5.110860e-02	4.756110e-03	4	false	GAMG	5.742170e-02	3.888800e-04	5	true
127           	smoothSolver	4.300940e-03	3.543820e-04	6	5.433240e-02	4.825100e-03	4	false	GAMG	6.741140e-02	3.952590e-04	5	true
128           	smoothSolver	4.296280e-03	3.538550e-04	6	5.551290e-02	4.897810e-03	4	false	GAMG	6.619010e-02	3.430030e-04	5	true
129           	smoothSolver	4.290540e-03	3.532850e-04	6	5.829320e-02	4.641730e-03	4	false	GAMG	6.916500e-02	3.525840e-04	5	true
130           	smoothSolver	4.285350e-03	3.527460e-04	6	5.943900e-02	4.797390e-03	4	false	GAMG	7.057650e-02	4.613680e-04	5	true
131           	smoothSolver	4.279730e-03	3.521560e-04	6	5.697050e-02	4.889340e-03	4	false	GAMG	7.088480e-02	4.971880e-04	5	true
132           	smoothSolver	4.273990e-03	3.515450e-04	6	6.108730e-02	4.888070e-03	4	false	GAMG	7.823830e-02	5.220340e-04	5	true
133           	smoothSolver	4.267850e-03	3.509300e-04	6	6.160280e-02	4.950840e-03	4	false	GAMG	8.760730e-02	7.289000e-04	5	true
134           	smoothSolver	4.261630e-03	3.502930e-04	6	6.158430e-02	4.811740e-03	4	false	GAMG	9.205420e-02	6.677710e-04	5	true
135           	smoothSolver	4.255340e-03	3.496340e-04	6	6.538560e-02	4.714740e-03	4	false	GAMG	1.048500e-01	5.089570e-04	5	true
136           	smoothSolver	4.249190e-03	3.489820e-04	6	6.853530e-02	5.209490e-03	4	false	GAMG	1.096060e-01	6.058400e-04	5	true
137           	smoothSolver	4.242120e-03	3.482990e-04	6	6.708530e-02	4.557900e-03	4	false	GAMG	1.113410e-01	5.098760e-04	5	true
138           	smoothSolver	4.235690e-03	3.476330e-04	6	6.583990e-02	5.021600e-03	4	false	GAMG	1.094840e-01	9.599110e-04	4	true
139           	smoothSolver	4.227210e-03	3.468070e-04	6	7.744890e-02	4.921260e-03	4	false	GAMG	1.125890e-01	9.863560e-04	4	true
140           	smoothSolver	4.219130e-03	3.460310e-04	6	8.045350e-02	7.837020e-03	3	false	GAMG	1.144730e-01	5.870710e-04	5	true
141           	smoothSolver	4.212220e-03	3.452920e-04	6	8.685130e-02	5.671740e-03	4	false	GAMG	1.174160e-01	6.563020e-04	5	true
142           	smoothSolver	4.205560e-03	3.446050e-04	6	8.814220e-02	8.584420e-03	3	false	GAMG	1.186920e-01	5.608830e-04	5	true
143           	smoothSolver	4.197010e-03	3.437790e-04	6	9.718100e-02	9.073780e-03	3	false	GAMG	1.251500e-01	1.237970e-03	4	true
144           	smoothSolver	4.187530e-03	3.428470e-04	6	1.006450e-01	6.167410e-03	4	false	GAMG	1.145680e-01	7.576450e-04	5	true
145           	smoothSolver	4.180280e-03	3.420720e-04	6	9.981910e-02	9.628110e-03	3	false	GAMG	1.157090e-01	9.948480e-04	4	true
146           	smoothSolver	4.172190e-03	3.412830e-04	6	1.079990e-01	9.441750e-03	3	false	GAMG	1.177850e-01	1.133490e-03	4	true
147           	smoothSolver	4.163450e-03	3.404730e-04	6	1.042840e-01	8.437680e-03	3	false	GAMG	1.130780e-01	1.007170e-03	4	true
148           	smoothSolver	4.154870e-03	3.396130e-04	6	1.054010e-01	8.761770e-03	3	false	GAMG	1.087120e-01	9.175260e-04	4	true
149           	smoothSolver	4.147380e-03	3.388600e-04	6	1.038490e-01	9.093910e-03	3	false	GAMG	1.060780e-01	7.127290e-04	5	true
150           	smoothSolver	4.138360e-03	3.379890e-04	6	1.113860e-01	9.270040e-03	3	false	GAMG	1.080060e-01	1.047330e-03	4	true
151           	smoothSolver	4.127830e-03	3.370730e-04	6	1.190940e-01	9.701940e-03	3	false	GAMG	1.065320e-01	1.012910e-03	4	true
152           	smoothSolver	4.117920e-03	3.361040e-04	6	1.214310e-01	1.030420e-02	3	false	GAMG	1.055620e-01	6.645390e-04	5	true
153           	smoothSolver	4.108790e-03	3.351750e-04	6	1.177520e-01	9.713310e-03	3	false	GAMG	9.816300e-02	7.094740e-04	5	true
154           	smoothSolver	4.098450e-03	3.341800e-04	6	1.255970e-01	1.031540e-02	3	false	GAMG	1.018880e-01	5.276120e-04	5	true
155           	smoothSolver	4.087130e-03	3.332090e-04	6	1.257060e-01	1.018430e-02	3	false	GAMG	9.590800e-02	6.070320e-04	5	true
156           	smoothSolver	4.077950e-03	3.323030e-04	6	1.327570e-01	1.043380e-02	3	false	GAMG	1.052500e-01	6.736610e-04	5	true
157           	smoothSolver	4.069070e-03	3.314240e-04	6	1.534340e-01	1.332790e-02	3	false	GAMG	1.217480e-01	1.113630e-03	4	true
158           	smoothSolver	4.058500e-03	3.304400e-04	6	1.706000e-01	1.442080e-02	3	false	GAMG	1.165760e-01	5.562400e-04	5	true
159           	smoothSolver	4.048040e-03	3.294460e-04	6	1.668960e-01	1.394280e-02	3	false	GAMG	1.213600e-01	1.113090e-03	4	true
160           	smoothSolver	4.036490e-03	3.283690e-04	6	1.811100e-01	1.585370e-02	3	false	GAMG	1.029550e-01	5.672740e-04	5	true
161           	smoothSolver	4.027630e-03	3.274940e-04	6	1.913380e-01	1.604850e-02	3	false	GAMG	1.103130e-01	7.376340e-04	5	true
162           	smoothSolver	4.015890e-03	3.264550e-04	6	1.832260e-01	1.456390e-02	3	false	GAMG	1.076710e-01	6.526240e-04	5	true
163           	smoothSolver	4.005660e-03	3.254200e-04	6	1.729720e-01	1.420350e-02	3	false	GAMG	1.031440e-01	9.346940e-04	5	true
164           	smoothSolver	3.993840e-03	3.243790e-04	6	1.757250e-01	1.497200e-02	3	false	GAMG	1.001910e-01	7.670600e-04	5	true
165           	smoothSolver	3.982710e-03	3.233630e-04	6	1.819260e-01	1.284730e-02	3	false	GAMG	9.820190e-02	7.630010e-04	5	true
166           	smoothSolver	3.970960e-03	3.222870e-04	6	1.988920e-01	1.385860e-02	3	false	GAMG	1.120000e-01	9.872700e-04	4	true
167           	smoothSolver	3.961820e-03	3.213050e-04	6	1.984660e-01	1.358760e-02	3	false	GAMG	1.119690e-01	8.637770e-04	5	true
168           	smoothSolver	3.948520e-03	3.202810e-04	6	2.179320e-01	1.370700e-02	3	false	GAMG	1.302930e-01	1.184520e-03	4	true
169           	smoothSolver	3.937610e-03	3.191420e-04	6	2.078030e-01	1.329610e-02	3	false	GAMG	1.194680e-01	1.186130e-03	4	true
170           	smoothSolver	3.924480e-03	3.180480e-04	6	2.396360e-01	1.682380e-02	3	false	GAMG	1.341020e-01	7.184240e-04	5	true
171           	smoothSolver	3.914200e-03	3.169990e-04	6	2.316090e-01	1.756270e-02	3	false	GAMG	1.244410e-01	6.507280e-04	5	true
172           	smoothSolver	3.903460e-03	3.159890e-04	6	2.502740e-01	1.867760e-02	3	false	GAMG	1.388810e-01	1.315780e-03	4	true
173           	smoothSolver	3.893020e-03	3.149280e-04	6	2.695790e-01	2.010800e-02	3	false	GAMG	1.339340e-01	1.221550e-03	4	true
174           	smoothSolver	3.878490e-03	3.138310e-04	6	2.698290e-01	1.966530e-02	3	false	GAMG	1.346730e-01	6.480060e-04	5	true
175           	smoothSolver	3.866850e-03	3.126700e-04	6	2.919840e-01	1.969280e-02	3	false	GAMG	1.322840e-01	1.131060e-03	4	true
176           	smoothSolver	3.858100e-03	3.117160e-04	6	2.841550e-01	2.244140e-02	3	false	GAMG	1.246180e-01	6.674150e-04	5	true
177           	smoothSolver	3.841680e-03	3.103990e-04	6	3.226710e-01	2.594510e-02	3	false	GAMG	1.364100e-01	8.414980e-04	5	true
178           	smoothSolver	3.828960e-03	3.092440e-04	6	3.285170e-01	2.775830e-02	3	false	GAMG	1.270380e-01	7.276330e-04	5	true
179           	smoothSolver	3.816440e-03	3.080560e-04	6	3.036580e-01	2.689920e-02	3	false	GAMG	1.209760e-01	1.173870e-03	4	true
180           	smoothSolver	3.803310e-03	3.068320e-04	6	3.250920e-01	2.768460e-02	3	false	GAMG	1.150660e-01	7.082920e-04	5	true
181           	smoothSolver	3.790350e-03	3.056190e-04	6	3.294830e-01	2.420330e-02	3	false	GAMG	1.151370e-01	1.086770e-03	4	true
182           	smoothSolver	3.778550e-03	3.045540e-04	6	3.658700e-01	2.575470e-02	3	false	GAMG	1.239860e-01	8.192470e-04	5	true
183           	smoothSolver	3.765050e-03	3.032950e-04	6	3.507190e-01	2.746590e-02	3	false	GAMG	1.143580e-01	8.085200e-04	5	true
184           	smoothSolver	3.752240e-03	3.021420e-04	6	3.546720e-01	2.888800e-02	3	false	GAMG	1.243230e-01	9.677650e-04	5	true
185           	smoothSolver	3.743420e-03	3.013540e-04	6	3.608880e-01	3.125110e-02	3	false	GAMG	1.255790e-01	7.582640e-04	5	true
186           	smoothSolver	3.728600e-03	3.000720e-04	6	3.715240e-01	2.963170e-02	3	false	GAMG	1.389150e-01	8.677580e-04	5	true
187           	smoothSolver	3.717700e-03	2.989080e-04	6	3.783020e-01	3.376490e-02	3	false	GAMG	1.435670e-01	7.819850e-04	5	true
188           	smoothSolver	3.705100e-03	2.979330e-04	6	3.861160e-01	2.935300e-02	3	false	GAMG	1.389190e-01	7.777800e-04	5	true
189           	smoothSolver	3.689950e-03	2.965260e-04	6	3.830760e-01	2.647700e-02	3	false	GAMG	1.396660e-01	7.314740e-04	5	true
190           	smoothSolver	3.677240e-03	2.954210e-04	6	4.298110e-01	2.948600e-02	3	false	GAMG	1.584980e-01	7.902960e-04	5	true
191           	smoothSolver	3.667440e-03	2.944820e-04	6	4.483960e-01	3.495700e-02	3	false	GAMG	1.570130e-01	1.028790e-03	5	true
192           	smoothSolver	3.656560e-03	2.933550e-04	6	4.514520e-01	3.037710e-02	3	false	GAMG	1.467600e-01	9.358050e-04	5	true
193           	smoothSolver	3.642370e-03	2.920760e-04	6	4.546230e-01	3.085490e-02	3	false	GAMG	1.692010e-01	9.310190e-04	5	true
194           	smoothSolver	3.626950e-03	2.908090e-04	6	4.341820e-01	3.603250e-02	3	false	GAMG	1.634640e-01	1.065000e-03	5	true
195           	smoothSolver	3.616520e-03	2.897630e-04	6	3.821990e-01	3.056140e-02	3	false	GAMG	1.821230e-01	7.172600e-04	6	true
196           	smoothSolver	3.602460e-03	2.886070e-04	6	3.484610e-01	2.978630e-02	3	false	GAMG	2.073080e-01	1.057130e-03	6	true
197           	smoothSolver	3.587270e-03	2.872850e-04	6	3.888720e-01	2.743140e-02	3	false	GAMG	1.797340e-01	1.448190e-03	4	true
198           	smoothSolver	3.574810e-03	2.861620e-04	6	4.386450e-01	3.292720e-02	3	false	GAMG	1.915090e-01	7.748870e-04	6	true
199           	smoothSolver	3.561110e-03	2.850090e-04	6	4.234420e-01	3.283530e-02	3	false	GAMG	2.241220e-01	1.434640e-03	5	true
200           	smoothSolver	3.545670e-03	2.836840e-04	6	4.308660e-01	2.598640e-02	3	false	GAMG	2.055340e-01	8.175300e-04	6	true
201           	smoothSolver	3.535570e-03	2.825790e-04	6	4.142410e-01	2.605140e-02	3	false	GAMG	1.830790e-01	1.092810e-03	5	true
202           	smoothSolver	3.522550e-03	2.814500e-04	6	4.346400e-01	2.371360e-02	3	false	GAMG	1.724950e-01	1.284280e-03	5	true
203           	smoothSolver	3.510850e-03	2.802710e-04	6	4.385910e-01	2.308160e-02	3	false	GAMG	1.935430e-01	1.658820e-03	4	true
204           	smoothSolver	3.494930e-03	2.790630e-04	6	4.376480e-01	2.790740e-02	3	false	GAMG	1.852350e-01	1.105570e-03	5	true
205           	smoothSolver	3.482560e-03	2.779590e-04	6	4.582170e-01	3.733620e-02	3	false	GAMG	2.091070e-01	1.218700e-03	5	true
206           	smoothSolver	3.470150e-03	2.768500e-04	6	4.186800e-01	3.189410e-02	3	false	GAMG	1.904910e-01	1.556190e-03	5	true
207           	smoothSolver	3.457280e-03	2.755560e-04	6	4.427620e-01	2.763230e-02	3	false	GAMG	1.765150e-01	1.207080e-03	5	true
208           	smoothSolver	3.444190e-03	2.744080e-04	6	4.767140e-01	3.284230e-02	3	false	GAMG	1.789720e-01	1.166450e-03	5	true
209           	smoothSolver	3.433240e-03	2.733890e-04	6	4.749900e-01	2.998840e-02	3	false	GAMG	1.798660e-01	9.468050e-04	5	true
210           	smoothSolver	3.418430e-03	2.720630e-04	6	4.584450e-01	3.053920e-02	3	false	GAMG	1.593260e-01	7.271680e-04	5	true
211           	smoothSolver	3.399870e-03	2.705470e-04	6	4.568520e-01	3.070750e-02	3	false	GAMG	1.592630e-01	7.563590e-04	5	true
212           	smoothSolver	3.383790e-03	2.690160e-04	6	4.325750e-01	2.903230e-02	3	false	GAMG	1.828340e-01	1.157060e-03	5	true
213           	smoothSolver	3.372650e-03	2.679180e-04	6	4.215630e-01	2.758710e-02	3	false	GAMG	1.748090e-01	9.390310e-04	5	true
214           	smoothSolver	3.355710e-03	2.664900e-04	6	4.450720e-01	3.321570e-02	3	false	GAMG	1.821270e-01	1.473020e-03	5	true
215           	smoothSolver	3.342110e-03	2.652400e-04	6	4.647960e-01	3.514840e-02	3	false	GAMG	1.894300e-01	1.798610e-03	5	true
216           	smoothSolver	3.331420e-03	2.640400e-04	6	4.303420e-01	2.583800e-02	3	false	GAMG	1.978470e-01	1.438190e-03	5	true
217           	smoothSolver	3.316120e-03	2.627630e-04	6	4.303410e-01	3.067610e-02	3	false	GAMG	2.080920e-01	1.125040e-03	5	true
218           	smoothSolver	3.299490e-03	2.614880e-04	6	4.004990e-01	2.840520e-02	3	false	GAMG	1.953650e-01	8.620360e-04	5	true
219           	smoothSolver	3.283050e-03	2.600250e-04	6	4.640390e-01	3.188340e-02	3	false	GAMG	2.092970e-01	1.708440e-03	5	true
220           	smoothSolver	3.271020e-03	2.587840e-04	6	4.391240e-01	2.877650e-02	3	false	GAMG	1.921430e-01	1.309050e-03	5	true
221           	smoothSolver	3.258030e-03	2.576490e-04	6	4.242510e-01	2.197630e-02	3	false	GAMG	2.204460e-01	9.093090e-04	5	true
222           	smoothSolver	3.242740e-03	2.564020e-04	6	4.474590e-01	2.897320e-02	3	false	GAMG	1.835320e-01	1.050330e-03	5	true
223           	smoothSolver	3.232000e-03	2.552400e-04	6	4.523010e-01	2.895720e-02	3	false	GAMG	2.037230e-01	9.238610e-04	5	true
224           	smoothSolver	3.219700e-03	2.540020e-04	6	4.493720e-01	3.042460e-02	3	false	GAMG	2.254410e-01	1.207030e-03	5	true
225           	smoothSolver	3.206770e-03	2.527980e-04	6	4.855890e-01	2.917580e-02	3	false	GAMG	2.062300e-01	1.572020e-03	5	true
226           	smoothSolver	3.189480e-03	2.514140e-04	6	4.664750e-01	2.395520e-02	3	false	GAMG	2.108780e-01	1.658840e-03	5	true
227           	smoothSolver	3.173870e-03	2.500060e-04	6	4.245830e-01	2.431080e-02	3	false	GAMG	1.856750e-01	1.188070e-03	5	true
228           	smoothSolver	3.159460e-03	2.486750e-04	6	4.731990e-01	2.887720e-02	3	false	GAMG	2.001210e-01	1.459210e-03	5	true
229           	smoothSolver	3.147550e-03	2.474880e-04	6	4.174110e-01	2.098690e-02	3	false	GAMG	2.269260e-01	8.893490e-04	6	true
230           	smoothSolver	3.132760e-03	2.462180e-04	6	4.185550e-01	2.303950e-02	3	false	GAMG	2.127740e-01	1.153830e-03	5	true
231           	smoothSolver	3.116200e-03	2.447840e-04	6	4.454680e-01	2.798840e-02	3	false	GAMG	2.206750e-01	1.026870e-03	5	true
232           	smoothSolver	3.101410e-03	2.435090e-04	6	4.506260e-01	3.362540e-02	3	false	GAMG	2.172880e-01	5.793250e-04	6	true