# Solver information
# Time        	U_solver      	Ux_initial    	Ux_final      	Ux_iters      	Uy_initial    	Uy_final      	Uy_iters      	U_converged   	p_solver      	p_initial     	p_final       	p_iters       	p_converged   
1             	smoothSolver	0.000000e+00	0.000000e+00	0	0.000000e+00	0.000000e+00	0	false	GAMG	9.999960e-01	5.007430e-03	3	true
2             	smoothSolver	5.952650e-01	4.502370e-02	6	1.000000e+00	7.483200e-02	2	false	GAMG	1.000000e+00	9.198910e-03	14	true
3             	smoothSolver	2.826790e-01	2.522430e-02	5	4.237980e-01	3.466390e-02	4	false	GAMG	4.072670e-01	3.801630e-03	8	true
4             	smoothSolver	8.044100e-02	5.564250e-03	4	4.357660e-01	3.181490e-02	4	false	GAMG	1.754220e-01	1.656770e-03	8	true
5             	smoothSolver	5.117770e-02	4.276380e-03	4	4.370360e-01	3.198930e-02	4	false	GAMG	1.736230e-01	1.381010e-03	8	true
6             	smoothSolver	3.738980e-02	2.541070e-03	5	4.167920e-01	2.995640e-02	4	false	GAMG	1.600820e-01	1.159520e-03	7	true
7             	smoothSolver	2.984390e-02	2.316700e-03	5	3.849390e-01	3.259940e-02	3	false	GAMG	1.620240e-01	1.104700e-03	6	true
8             	smoothSolver	2.610320e-02	2.145470e-03	5	3.937010e-01	3.873900e-02	3	false	GAMG	1.689190e-01	1.212670e-03	5	true
9             	smoothSolver	2.307570e-02	1.998180e-03	5	4.188480e-01	2.631700e-02	4	false	GAMG	1.731710e-01	9.653790e-04	5	true
10            	smoothSolver	2.093910e-02	1.893820e-03	5	3.486630e-01	2.163800e-02	4	false	GAMG	1.582280e-01	1.516400e-03	4	true
11            	smoothSolver	1.904580e-02	1.808410e-03	5	3.117390e-01	2.877910e-02	3	false	GAMG	1.386380e-01	9.649860e-04	4	true
12            	smoothSolver	1.765740e-02	1.742150e-03	5	2.797410e-01	2.468630e-02	3	false	GAMG	1.255650e-01	9.127940e-04	4	true
13            	smoothSolver	1.638370e-02	1.102670e-03	6	2.779030e-01	1.686790e-02	4	false	GAMG	1.291410e-01	9.256050e-04	5	true
14            	smoothSolver	1.535170e-02	1.070930e-03	6	2.613200e-01	1.966910e-02	4	false	GAMG	1.229420e-01	7.054430e-04	5	true
15            	smoothSolver	1.450910e-02	1.043670e-03	6	2.650170e-01	2.259610e-02	4	false	GAMG	1.106960e-01	6.381070e-04	5	true
16            	smoothSolver	1.371240e-02	1.014400e-03	6	3.047500e-01	2.811530e-02	4	false	GAMG	1.182950e-01	7.887700e-04	5	true
17            	smoothSolver	1.306390e-02	9.920940e-04	6	2.879290e-01	2.608610e-02	4	false	GAMG	1.102920e-01	7.655850e-04	5	true
18            	smoothSolver	1.251730e-02	9.725770e-04	6	2.510230e-01	2.462000e-02	4	false	GAMG	9.980660e-02	8.412330e-04	5	true
19            	smoothSolver	1.197300e-02	9.482470e-04	6	2.651940e-01	2.529180e-02	4	false	GAMG	1.136590e-01	7.982960e-04	5	true
20            	smoothSolver	1.154850e-02	9.305670e-04	6	2.582670e-01	2.542750e-02	4	false	GAMG	1.241910e-01	9.605380e-04	5	true
21            	smoothSolver	1.129420e-02	9.103220e-04	6	2.532580e-01	2.511000e-02	4	false	GAMG	1.313320e-01	1.049290e-03	5	true
22            	smoothSolver	1.124290e-02	8.945510e-04	6	2.386550e-01	1.715400e-02	5	false	GAMG	1.241220e-01	1.171430e-03	5	true
23            	smoothSolver	1.121560e-02	8.807670e-04	6	2.232630e-01	1.563780e-02	5	false	GAMG	1.342980e-01	8.546610e-04	5	true
24            	smoothSolver	1.113440e-02	8.644460e-04	6	2.282070e-01	2.257870e-02	4	false	GAMG	1.409110e-01	6.278850e-04	5	true
25            	smoothSolver	1.105910e-02	8.489770e-04	6	2.242040e-01	1.583500e-02	5	false	GAMG	1.282560e-01	9.192720e-04	5	true
26            	smoothSolver	1.100030e-02	8.355770e-04	6	2.171800e-01	1.522100e-02	5	false	GAMG	1.409870e-01	1.221320e-03	5	true
27            	smoothSolver	1.094830e-02	8.241900e-04	6	2.058850e-01	1.592430e-02	5	false	GAMG	1.522740e-01	1.487000e-03	5	true
28            	smoothSolver	1.084500e-02	8.087890e-04	6	2.004070e-01	1.535260e-02	5	false	GAMG	1.505550e-01	1.266510e-03	5	true
29            	smoothSolver	1.078540e-02	7.965350e-04	6	2.011130e-01	1.358420e-02	5	false	GAMG	1.668740e-01	1.239350e-03	5	true
30            	smoothSolver	1.071720e-02	7.848410e-04	6	1.805530e-01	1.281810e-02	5	false	GAMG	1.530060e-01	9.830230e-04	5	true
31            	smoothSolver	1.064020e-02	7.731080e-04	6	1.686000e-01	1.125840e-02	5	false	GAMG	1.466640e-01	1.443090e-03	4	true
32            	smoothSolver	1.057620e-02	7.618270e-04	6	1.580760e-01	1.156050e-02	5	false	GAMG	1.405510e-01	1.209220e-03	4	true
33            	smoothSolver	1.053610e-02	7.533090e-04	6	1.546500e-01	1.196640e-02	5	false	GAMG	1.257240e-01	8.721650e-04	5	true
34            	smoothSolver	1.048460e-02	7.447140e-04	6	1.781420e-01	1.344890e-02	5	false	GAMG	1.374470e-01	1.004260e-03	5	true
35            	smoothSolver	1.042870e-02	7.358790e-04	6	1.757450e-01	1.338790e-02	5	false	GAMG	1.456110e-01	1.325170e-03	5	true
36            	smoothSolver	1.038550e-02	7.278190e-04	6	1.682540e-01	1.166020e-02	5	false	GAMG	1.536980e-01	1.325460e-03	4	true
37            	smoothSolver	1.033360e-02	7.196830e-04	6	1.739200e-01	1.178150e-02	5	false	GAMG	1.683190e-01	1.101310e-03	5	true
38            	smoothSolver	1.027760e-02	7.110730e-04	6	1.795170e-01	1.260560e-02	5	false	GAMG	1.589150e-01	9.935730e-04	7	true
39            	smoothSolver	1.025180e-02	7.048920e-04	6	1.807170e-01	1.279930e-02	5	false	GAMG	1.906780e-01	1.447530e-03	5	true
40            	smoothSolver	1.019440e-02	6.967190e-04	6	1.765650e-01	1.374280e-02	5	false	GAMG	1.586450e-01	7.525570e-04	5	true
41            	smoothSolver	1.014440e-02	6.894880e-04	6	1.846970e-01	1.552530e-02	5	false	GAMG	1.605410e-01	1.186550e-03	5	true
42            	smoothSolver	1.011410e-02	6.835710e-04	6	1.862990e-01	1.397290e-02	5	false	GAMG	1.530250e-01	1.173940e-03	5	true
43            	smoothSolver	1.007660e-02	6.771600e-04	6	2.091240e-01	1.491970e-02	5	false	GAMG	1.443470e-01	1.209570e-03	5	true
44            	smoothSolver	1.004320e-02	6.721940e-04	6	1.981180e-01	1.451200e-02	5	false	GAMG	1.406620e-01	6.963100e-04	5	true
45            	smoothSolver	1.001420e-02	6.671570e-04	6	2.185710e-01	1.465510e-02	5	false	GAMG	1.670560e-01	1.454030e-03	5	true
46            	smoothSolver	9.991900e-03	6.630150e-04	6	2.350360e-01	1.594910e-02	5	false	GAMG	1.538400e-01	1.012030e-03	5	true
47            	smoothSolver	9.947470e-03	6.574580e-04	6	2.448910e-01	1.593000e-02	5	false	GAMG	1.649180e-01	1.053850e-03	5	true
48            	smoothSolver	9.920920e-03	6.518260e-04	6	3.057660e-01	2.878890e-02	4	false	GAMG	1.584060e-01	1.000300e-03	5	true
49            	smoothSolver	9.904950e-03	9.884580e-04	5	3.069290e-01	2.935930e-02	4	false	GAMG	1.686290e-01	1.352500e-03	5	true
50            	smoothSolver	9.862600e-03	9.827840e-04	5	2.870080e-01	2.852270e-02	4	false	GAMG	1.602060e-01	1.316600e-03	5	true
51            	smoothSolver	9.841740e-03	9.773920e-04	5	2.723270e-01	1.799430e-02	5	false	GAMG	1.644280e-01	1.014860e-03	6	true
52            	smoothSolver	9.826740e-03	9.739550e-04	5	2.830600e-01	2.578940e-02	4	false	GAMG	1.912720e-01	1.489950e-03	5	true
53            	smoothSolver	9.798680e-03	9.696850e-04	5	2.665890e-01	2.551410e-02	4	false	GAMG	2.015450e-01	1.332220e-03	5	true
54            	smoothSolver	9.773380e-03	9.639110e-04	5	2.742770e-01	2.570630e-02	4	false	GAMG	1.834630e-01	1.168080e-03	5	true
55            	smoothSolver	9.748170e-03	9.592510e-04	5	2.343670e-01	2.097000e-02	4	false	GAMG	1.555860e-01	1.394850e-03	6	true
56            	smoothSolver	9.717590e-03	9.539650e-04	5	2.388690e-01	2.345190e-02	4	false	GAMG	1.603400e-01	9.814280e-04	5	true
57            	smoothSolver	9.680490e-03	9.482240e-04	5	1.979070e-01	1.966920e-02	4	false	GAMG	1.603930e-01	6.876170e-04	5	true
58            	smoothSolver	9.640010e-03	9.421010e-04	5	2.064960e-01	2.039020e-02	4	false	GAMG	1.644830e-01	8.094980e-04	5	true
59            	smoothSolver	9.616040e-03	9.374010e-04	5	1.895910e-01	1.823970e-02	4	false	GAMG	1.617280e-01	1.563180e-03	5	true
60            	smoothSolver	9.575570e-03	9.315000e-04	5	1.843520e-01	1.678900e-02	4	false	GAMG	1.841510e-01	9.712850e-04	5	true
61            	smoothSolver	9.555870e-03	9.271050e-04	5	1.751050e-01	1.532250e-02	4	false	GAMG	1.743810e-01	9.167290e-04	5	true
62            	smoothSolver	9.527510e-03	9.220300e-04	5	1.674130e-01	1.334250e-02	4	false	GAMG	1.851080e-01	1.609740e-03	5	true
63            	smoothSolver	9.499540e-03	9.180160e-04	5	1.630190e-01	1.414580e-02	4	false	GAMG	1.693500e-01	1.101450e-03	7	true
64            	smoothSolver	9.454610e-03	9.124440e-04	5	1.439690e-01	1.139430e-02	4	false	GAMG	1.478320e-01	1.235600e-03	7	true
65            	smoothSolver	9.423320e-03	9.070180e-04	5	1.684760e-01	1.155250e-02	4	false	GAMG	1.965270e-01	1.028520e-03	5	true
66            	smoothSolver	9.372120e-03	9.001730e-04	5	1.544060e-01	1.450050e-02	4	false	GAMG	1.798840e-01	1.772100e-03	5	true
67            	smoothSolver	9.341380e-03	8.954500e-04	5	1.671320e-01	1.206560e-02	5	false	GAMG	1.773580e-01	1.341900e-03	8	true
68            	smoothSolver	9.304510e-03	8.907690e-04	5	1.682530e-01	1.636990e-02	4	false	GAMG	1.336060e-01	7.172470e-04	5	true
69            	smoothSolver	9.259180e-03	8.849740e-04	5	2.057160e-01	1.933090e-02	4	false	GAMG	1.387320e-01	1.247840e-03	5	true
70            	smoothSolver	9.225810e-03	8.801060e-04	5	2.283300e-01	1.848320e-02	4	false	GAMG	1.494950e-01	1.363630e-03	7	true
71            	smoothSolver	9.181140e-03	8.747530e-04	5	2.771770e-01	2.129730e-02	4	false	GAMG	1.650620e-01	1.453090e-03	5	true
72            	smoothSolver	9.153080e-03	8.714660e-04	5	3.144890e-01	2.593970e-02	4	false	GAMG	1.666870e-01	1.325810e-03	5	true
73            	smoothSolver	9.102200e-03	8.650490e-04	5	3.494580e-01	2.479440e-02	4	false	GAMG	1.576930e-01	1.206140e-03	5	true
74            	smoothSolver	9.071090e-03	8.605440e-04	5	3.658080e-01	2.467120e-02	4	false	GAMG	1.509790e-01	8.489070e-04	5	true
75            	smoothSolver	9.017550e-03	8.543120e-04	5	3.415120e-01	1.914230e-02	4	false	GAMG	1.511860e-01	1.312280e-03	4	true
76            	smoothSolver	8.973050e-03	8.491580e-04	5	3.592130e-01	2.406540e-02	4	false	GAMG	1.431040e-01	1.349620e-03	6	true
77            	smoothSolver	8.926000e-03	8.438860e-04	5	3.418590e-01	2.198230e-02	4	false	GAMG	1.439920e-01	1.118380e-03	6	true
78            	smoothSolver	8.882740e-03	8.385700e-04	5	3.295340e-01	2.955820e-02	3	false	GAMG	1.506710e-01	1.029200e-03	5	true
79            	smoothSolver	8.832590e-03	8.326960e-04	5	3.221780e-01	2.788990e-02	3	false	GAMG	1.526280e-01	1.198640e-03	5	true
80            	smoothSolver	8.799720e-03	8.295380e-04	5	3.131490e-01	2.678730e-02	3	false	GAMG	1.595600e-01	8.834740e-04	5	true
81            	smoothSolver	8.757360e-03	8.249560e-04	5	3.445680e-01	3.390100e-02	3	false	GAMG	1.622920e-01	1.383240e-03	7	true
82            	smoothSolver	8.704010e-03	8.189580e-04	5	3.370300e-01	2.925430e-02	3	false	GAMG	1.507790e-01	1.161440e-03	5	true
83            	smoothSolver	8.664930e-03	8.152090e-04	5	3.438620e-01	1.865600e-02	4	false	GAMG	1.402190e-01	8.590590e-04	7	true
84            	smoothSolver	8.617160e-03	8.091780e-04	5	3.330130e-01	1.806530e-02	4	false	GAMG	1.494140e-01	1.430780e-03	5	true
85            	smoothSolver	8.563980e-03	8.034830e-04	5	3.124640e-01	2.098080e-02	4	false	GAMG	1.477580e-01	9.595190e-04	7	true
86            	smoothSolver	8.506590e-03	7.979460e-04	5	3.029940e-01	2.714720e-02	3	false	GAMG	1.510480e-01	1.087510e-03	5	true
87            	smoothSolver	8.447420e-03	7.923810e-04	5	2.642000e-01	2.293710e-02	3	false	GAMG	1.555370e-01	6.831650e-04	5	true
88            	smoothSolver	8.397930e-03	7.865600e-04	5	2.914190e-01	1.705660e-02	4	false	GAMG	1.764050e-01	1.203920e-03	5	true
89            	smoothSolver	8.343150e-03	7.804560e-04	5	2.600810e-01	1.472690e-02	4	false	GAMG	1.583380e-01	1.063550e-03	5	true
90            	smoothSolver	8.297320e-03	7.761220e-04	5	2.324750e-01	2.222200e-02	3	false	GAMG	1.648100e-01	9.372080e-04	5	true
91            	smoothSolver	8.222200e-03	7.676950e-04	5	2.546250e-01	1.446790e-02	4	false	GAMG	1.754160e-01	1.605350e-03	7	true
92            	smoothSolver	8.159180e-03	7.617550e-04	5	2.323590e-01	1.412810e-02	4	false	GAMG	1.373460e-01	1.129010e-03	4	true
93            	smoothSolver	8.114830e-03	7.568490e-04	5	2.480310e-01	2.344610e-02	3	false	GAMG	1.821030e-01	9.748860e-04	5	true
94            	smoothSolver	8.055080e-03	7.510850e-04	5	2.517160e-01	1.641040e-02	4	false	GAMG	1.586220e-01	1.436640e-03	7	true
95            	smoothSolver	8.003280e-03	7.450660e-04	5	2.604750e-01	1.901070e-02	4	false	GAMG	1.592350e-01	1.328490e-03	6	true
96            	smoothSolver	7.943960e-03	7.394480e-04	5	2.302610e-01	1.360170e-02	4	false	GAMG	1.658770e-01	6.512140e-04	5	true
97            	smoothSolver	7.873500e-03	7.326430e-04	5	2.405550e-01	1.716450e-02	4	false	GAMG	1.592110e-01	7.649020e-04	5	true
98            	smoothSolver	7.816740e-03	7.272610e-04	5	3.134650e-01	2.411200e-02	4	false	GAMG	1.704820e-01	1.513150e-03	7	true
99            	smoothSolver	7.763130e-03	7.214110e-04	5	3.336830e-01	2.752450e-02	4	false	GAMG	1.758000e-01	1.128280e-03	5	true
100           	smoothSolver	7.699350e-03	7.154090e-04	5	3.689740e-01	3.083730e-02	4	false	GAMG	1.849160e-01	1.501100e-03	6	true
101           	smoothSolver	7.653780e-03	7.106090e-04	5	3.441520e-01	2.994460e-02	4	false	GAMG	1.602450e-01	1.345420e-03	5	true
102           	smoothSolver	7.577990e-03	7.039000e-04	5	3.495430e-01	2.759450e-02	4	false	GAMG	1.646320e-01	1.633770e-03	6	true
103           	smoothSolver	7.513720e-03	6.975100e-04	5	3.456390e-01	3.197510e-02	4	false	GAMG	1.910980e-01	1.428510e-03	5	true
104           	smoothSolver	7.447260e-03	6.914630e-04	5	3.523420e-01	3.215850e-02	4	false	GAMG	2.134490e-01	1.441230e-03	6	true
105           	smoothSolver	7.381310e-03	6.839280e-04	5	3.082720e-01	2.384000e-02	4	false	GAMG	1.871680e-01	1.569850e-03	5	true
106           	smoothSolver	7.323860e-03	6.774260e-04	5	3.117360e-01	2.417160e-02	4	false	GAMG	1.999620e-01	1.310000e-03	6	true
107           	smoothSolver	7.260940e-03	6.716210e-04	5	3.046950e-01	2.560010e-02	4	false	GAMG	1.865100e-01	1.447340e-03	7	true
108           	smoothSolver	7.182140e-03	6.646670e-04	5	3.207880e-01	2.568300e-02	4	false	GAMG	1.989410e-01	1.398070e-03	7	true
109           	smoothSolver	7.126190e-03	6.586800e-04	5	2.944790e-01	2.190400e-02	4	false	GAMG	1.891800e-01	1.228840e-03	5	true
110           	smoothSolver	7.059390e-03	6.520160e-04	5	3.336790e-01	2.888840e-02	4	false	GAMG	2.062960e-01	1.597730e-03	6	true
111           	smoothSolver	6.980010e-03	6.451700e-04	5	3.236890e-01	2.259000e-02	4	false	GAMG	1.886710e-01	1.641800e-03	6	true
112           	smoothSolver	6.905840e-03	6.375730e-04	5	3.673990e-01	2.345000e-02	4	false	GAMG	1.645370e-01	1.544740e-03	5	true
113           	smoothSolver	6.826460e-03	6.297530e-04	5	3.096170e-01	2.182220e-02	4	false	GAMG	1.556380e-01	1.228700e-03	5	true
114           	smoothSolver	6.769110e-03	6.232020e-04	5	3.206020e-01	2.077650e-02	4	false	GAMG	1.696010e-01	9.817760e-04	5	true
115           	smoothSolver	6.689540e-03	6.155760e-04	5	3.360640e-01	2.276860e-02	4	false	GAMG	1.820880e-01	1.659180e-03	5	true
116           	smoothSolver	6.596490e-03	6.076000e-04	5	3.634200e-01	2.467140e-02	4	false	GAMG	1.968420e-01	1.679580e-03	6	true
117           	smoothSolver	6.523730e-03	6.007300e-04	5	3.359060e-01	3.202620e-02	3	false	GAMG	1.578150e-01	1.390570e-03	6	true
118           	smoothSolver	6.465170e-03	5.945860e-04	5	3.304550e-01	2.894730e-02	3	false	GAMG	1.635490e-01	1.593340e-03	6	true
119           	smoothSolver	6.412710e-03	5.886130e-04	5	3.429070e-01	3.231310e-02	3	false	GAMG	1.711560e-01	1.676470e-03	6	true
120           	smoothSolver	6.306610e-03	5.799010e-04	5	3.719200e-01	3.036980e-02	3	false	GAMG	2.033720e-01	1.430240e-03	8	true
121           	smoothSolver	6.224230e-03	5.716900e-04	5	3.743680e-01	2.897540e-02	3	false	GAMG	1.595530e-01	1.524400e-03	5	true
122           	smoothSolver	6.166360e-03	5.654730e-04	5	3.979400e-01	3.195150e-02	3	false	GAMG	1.763190e-01	1.482930e-03	7	true
123           	smoothSolver	6.106440e-03	5.591260e-04	5	4.115110e-01	3.851860e-02	3	false	GAMG	2.082270e-01	1.927380e-03	6	true
124           	smoothSolver	6.027050e-03	5.523220e-04	5	4.090080e-01	2.348650e-02	4	false	GAMG	1.946720e-01	1.907400e-03	9	true
125           	smoothSolver	5.938480e-03	5.447920e-04	5	3.632590e-01	2.054010e-02	4	false	GAMG	1.391010e-01	1.322450e-03	10	true
126           	smoothSolver	5.879510e-03	5.381690e-04	5	2.993970e-01	2.962310e-02	3	false	GAMG	1.736280e-01	1.336190e-03	5	true
127           	smoothSolver	5.797070e-03	5.303450e-04	5	3.199320e-01	3.021750e-02	3	false	GAMG	2.068000e-01	1.737530e-03	5	true
128           	smoothSolver	5.704940e-03	5.228390e-04	5	3.329600e-01	3.012600e-02	3	false	GAMG	2.052030e-01	1.812560e-03	7	true
129           	smoothSolver	5.638980e-03	5.160890e-04	5	3.044460e-01	1.799100e-02	4	false	GAMG	2.078100e-01	1.344180e-03	5	true
130           	smoothSolver	5.552660e-03	5.084250e-04	5	3.262630e-01	1.916860e-02	4	false	GAMG	2.047240e-01	1.341650e-03	5	true
131           	smoothSolver	5.480240e-03	4.999150e-04	5	3.108040e-01	1.709440e-02	4	false	GAMG	1.984550e-01	1.167700e-03	5	true
132           	smoothSolver	5.412220e-03	4.931480e-04	5	3.046090e-01	1.764230e-02	4	false	GAMG	1.822250e-01	1.245940e-03	8	true
133           	smoothSolver	5.328680e-03	4.863070e-04	5	3.420530e-01	2.424950e-02	4	false	GAMG	2.370310e-01	1.763390e-03	8	true
134           	smoothSolver	5.259010e-03	4.796010e-04	5	3.064890e-01	2.770120e-02	3	false	GAMG	1.905110e-01	7.503250e-04	5	true
135           	smoothSolver	5.193130e-03	4.727530e-04	5	3.080250e-01	2.966830e-02	3	false	GAMG	1.587710e-01	1.413500e-03	7	true
136           	smoothSolver	5.096810e-03	4.641310e-04	5	3.082310e-01	2.015640e-02	4	false	GAMG	1.618690e-01	1.359070e-03	8	true
137           	smoothSolver	5.025320e-03	4.571010e-04	5	3.491690e-01	3.448960e-02	3	false	GAMG	1.845820e-01	1.233040e-03	8	true
138           	smoothSolver	4.927420e-03	4.490720e-04	5	3.525750e-01	2.396780e-02	4	false	GAMG	1.729180e-01	1.258300e-03	11	true
139           	smoothSolver	4.844760e-03	4.405670e-04	5	3.542890e-01	2.394630e-02	4	false	GAMG	1.612910e-01	1.220290e-03	7	true
140           	smoothSolver	4.780270e-03	4.338520e-04	5	3.417910e-01	3.306230e-02	3	false	GAMG	1.614020e-01	9.064500e-04	8	true
141           	smoothSolver	4.702290e-03	4.268290e-04	5	3.297090e-01	3.141860e-02	3	false	GAMG	1.419280e-01	1.249190e-03	7	true
142           	smoothSolver	4.622090e-03	4.193930e-04	5	3.825260e-01	3.293990e-02	3	false	GAMG	1.750170e-01	1.676370e-03	5	true
143           	smoothSolver	4.539400e-03	4.117440e-04	5	3.562860e-01	3.046050e-02	3	false	GAMG	1.933570e-01	1.913330e-03	6	true
144           	smoothSolver	4.452820e-03	4.034860e-04	5	3.496880e-01	3.355470e-02	3	false	GAMG	1.590100e-01	1.313970e-03	8	true
145           	smoothSolver	4.371370e-03	3.957180e-04	5	4.093700e-01	2.635340e-02	4	false	GAMG	2.205220e-01	1.331080e-03	5	true
146           	smoothSolver	4.297930e-03	3.881900e-04	5	4.190460e-01	2.425680e-02	4	false	GAMG	1.999920e-01	1.481960e-03	7	true
147           	smoothSolver	4.226200e-03	3.812190e-04	5	4.152100e-01	2.827020e-02	4	false	GAMG	1.713840e-01	1.392060e-03	7	true
148           	smoothSolver	4.157560e-03	3.752380e-04	5	4.109900e-01	2.604020e-02	4	false	GAMG	1.642640e-01	1.054420e-03	6	true
149           	smoothSolver	4.097150e-03	3.688570e-04	5	4.318230e-01	2.516700e-02	4	false	GAMG	1.537590e-01	1.522320e-03	5	true
150           	smoothSolver	3.994650e-03	3.610750e-04	5	3.284410e-01	2.325650e-02	4	false	GAMG	1.531470e-01	1.043130e-03	8	true
151           	smoothSolver	3.927570e-03	3.536020e-04	5	3.111390e-01	2.018170e-02	4	false	GAMG	1.745930e-01	1.345700e-03	8	true
152           	smoothSolver	3.873840e-03	3.479210e-04	5	3.127450e-01	1.963290e-02	4	false	GAMG	1.638450e-01	1.100450e-03	9	true
153           	smoothSolver	3.814140e-03	3.418260e-04	5	3.240270e-01	2.018630e-02	4	false	GAMG	2.121720e-01	1.745030e-03	7	true
154           	smoothSolver	3.727800e-03	3.349870e-04	5	3.350190e-01	2.467840e-02	4	false	GAMG	2.022410e-01	1.391860e-03	8	true
155           	smoothSolver	3.651130e-03	3.276450e-04	5	3.043830e-01	1.877170e-02	4	false	GAMG	2.148530e-01	1.812470e-03	6	true
156           	smoothSolver	3.585510e-03	3.211020e-04	5	3.100820e-01	2.113840e-02	4	false	GAMG	2.088720e-01	1.790840e-03	7	true
157           	smoothSolver	3.485190e-03	3.133840e-04	5	3.290470e-01	2.288590e-02	4	false	GAMG	1.796060e-01	1.070000e-03	5	true
158           	smoothSolver	3.435330e-03	3.069280e-04	5	3.354940e-01	2.538040e-02	4	false	GAMG	1.463680e-01	1.254170e-03	5	true
159           	smoothSolver	3.352610e-03	3.002560e-04	5	2.989010e-01	2.078200e-02	4	false	GAMG	1.611770e-01	1.350290e-03	5	true
160           	smoothSolver	3.277670e-03	2.932260e-04	5	3.254310e-01	2.504620e-02	4	false	GAMG	1.569270e-01	1.160490e-03	5	true
161           	smoothSolver	3.227480e-03	2.873870e-04	5	3.437630e-01	2.327590e-02	4	false	GAMG	1.556500e-01	1.487440e-03	5	true
162           	smoothSolver	3.180740e-03	2.821390e-04	5	3.522510e-01	2.152700e-02	4	false	GAMG	1.832330e-01	1.415690e-03	6	true
163           	smoothSolver	3.094600e-03	2.763520e-04	5	3.617650e-01	2.315370e-02	4	false	GAMG	1.825990e-01	1.480840e-03	7	true
164           	smoothSolver	3.026340e-03	2.692720e-04	5	3.735860e-01	2.471270e-02	4	false	GAMG	1.810640e-01	1.586690e-03	6	true
165           	smoothSolver	2.964560e-03	2.631030e-04	5	3.161700e-01	1.987430e-02	4	false	GAMG	1.472860e-01	1.171440e-03	8	true
166           	smoothSolver	2.904020e-03	2.567770e-04	5	3.416900e-01	2.292340e-02	4	false	GAMG	1.666360e-01	1.283210e-03	8	true
167           	smoothSolver	2.825320e-03	2.500570e-04	5	3.312600e-01	2.474120e-02	4	false	GAMG	1.622100e-01	1.394910e-03	6	true
168           	smoothSolver	2.766150e-03	2.442710e-04	5	3.835970e-01	2.621720e-02	4	false	GAMG	1.701130e-01	1.229750e-03	8	true
169           	smoothSolver	2.701390e-03	2.384750e-04	5	3.990020e-01	3.195870e-02	4	false	GAMG	1.655020e-01	1.175040e-03	8	true
170           	smoothSolver	2.634500e-03	2.328690e-04	5	4.018920e-01	3.005800e-02	4	false	GAMG	1.878310e-01	1.567260e-03	6	true
171           	smoothSolver	2.574430e-03	2.270080e-04	5	4.197880e-01	2.678110e-02	4	false	GAMG	2.228560e-01	1.999000e-03	5	true
172           	smoothSolver	2.525890e-03	2.215080e-04	5	3.674440e-01	2.159440e-02	4	false	GAMG	2.249160e-01	1.745640e-03	6	true
173           	smoothSolver	2.484020e-03	2.167070e-04	5	3.659170e-01	3.421800e-02	3	false	GAMG	2.044500e-01	1.643310e-03	6	true
174           	smoothSolver	2.434120e-03	2.131280e-04	5	3.649830e-01	2.197390e-02	4	false	GAMG	1.885170e-01	1.825590e-03	9	true
175           	smoothSolver	2.354860e-03	2.078210e-04	5	3.862800e-01	2.615220e-02	4	false	GAMG	1.874670e-01	1.730640e-03	5	true
176           	smoothSolver	2.302480e-03	2.024230e-04	5	3.662450e-01	2.528170e-02	4	false	GAMG	1.921940e-01	1.875480e-03	5	true
177           	smoothSolver	2.246820e-03	1.966520e-04	5	3.511370e-01	2.146920e-02	4	false	GAMG	1.847760e-01	1.519880e-03	6	true
178           	smoothSolver	2.203920e-03	1.926290e-04	5	3.073570e-01	2.778790e-02	3	false	GAMG	2.016640e-01	1.720270e-03	10	true
179           	smoothSolver	2.137560e-03	1.871660e-04	5	3.014270e-01	2.552670e-02	4	false	GAMG	2.245530e-01	1.852500e-03	6	true
180           	smoothSolver	2.091380e-03	1.814890e-04	5	3.138090e-01	2.646610e-02	4	false	GAMG	2.205180e-01	2.128700e-03	12	true
181           	smoothSolver	2.042740e-03	1.770180e-04	5	3.536130e-01	2.724460e-02	4	false	GAMG	1.770050e-01	1.288110e-03	12	true
182           	smoothSolver	1.999940e-03	1.739980e-04	5	3.901640e-01	3.172140e-02	4	false	GAMG	1.464740e-01	1.176000e-03	7	true
183           	smoothSolver	1.969380e-03	1.705250e-04	5	4.521880e-01	3.604970e-02	4	false	GAMG	1.536160e-01	8.989020e-04	6	true
184           	smoothSolver	1.910720e-03	1.662690e-04	5	4.170010e-01	3.368150e-02	4	false	GAMG	1.474620e-01	1.221370e-03	12	true
185           	smoothSolver	1.850070e-03	1.609330e-04	5	4.052570e-01	3.845520e-02	3	false	GAMG	2.128520e-01	1.597810e-03	7	true
186           	smoothSolver	1.796360e-03	1.562170e-04	5	3.995230e-01	3.682070e-02	3	false	GAMG	2.086240e-01	1.356520e-03	8	true
187           	smoothSolver	1.763430e-03	1.522670e-04	5	4.925950e-01	4.826950e-02	3	false	GAMG	2.094420e-01	1.464360e-03	6	true
188           	smoothSolver	1.713900e-03	1.485420e-04	5	4.692630e-01	4.645910e-02	3	false	GAMG	1.846880e-01	1.241950e-03	7	true
189           	smoothSolver	1.655030e-03	1.440030e-04	5	4.870900e-01	4.852970e-02	3	false	GAMG	2.207630e-01	2.099110e-03	5	true
190           	smoothSolver	1.628890e-03	1.411630e-04	5	4.291600e-01	2.522950e-02	4	false	GAMG	2.124730e-01	1.878820e-03	7	true
191           	smoothSolver	1.590750e-03	1.380710e-04	5	3.867590e-01	3.089710e-02	3	false	GAMG	1.655060e-01	1.518970e-03	5	true
192           	smoothSolver	1.577590e-03	1.363950e-04	5	4.251120e-01	2.362840e-02	4	false	GAMG	1.901480e-01	1.578710e-03	6	true
193           	smoothSolver	1.519430e-03	1.332310e-04	5	4.183380e-01	4.041010e-02	3	false	GAMG	1.686700e-01	1.471090e-03	11	true
194           	smoothSolver	1.493890e-03	1.303550e-04	5	4.000840e-01	3.488000e-02	3	false	GAMG	1.467600e-01	1.174040e-03	8	true
195           	smoothSolver	1.449400e-03	1.262580e-04	5	3.960300e-01	2.315770e-02	4	false	GAMG	1.504940e-01	1.163320e-03	5	true
196           	smoothSolver	1.406320e-03	1.226440e-04	5	3.462460e-01	2.166560e-02	4	false	GAMG	1.683980e-01	1.059880e-03	5	true
197           	smoothSolver	1.369960e-03	1.197860e-04	5	3.402050e-01	3.215100e-02	3	false	GAMG	1.672180e-01	1.526320e-03	6	true
198           	smoothSolver	1.353910e-03	1.183470e-04	5	3.574200e-01	3.282110e-02	3	false	GAMG	1.326140e-01	1.162500e-03	8	true
199           	smoothSolver	1.319820e-03	1.159180e-04	5	4.168760e-01	2.666960e-02	4	false	GAMG	1.260030e-01	1.225280e-03	5	true
200           	smoothSolver	1.301410e-03	1.144820e-04	5	4.401220e-01	4.294630e-02	3	false	GAMG	1.229020e-01	9.529750e-04	8	true
201           	smoothSolver	1.270690e-03	1.122330e-04	5	4.049210e-01	2.330380e-02	4	false	GAMG	1.220340e-01	1.022570e-03	7	true
202           	smoothSolver	1.240670e-03	1.102450e-04	5	4.575220e-01	2.606230e-02	4	false	GAMG	1.061380e-01	8.838020e-04	8	true
203           	smoothSolver	1.217480e-03	1.080760e-04	5	4.369580e-01	3.457970e-02	3	false	GAMG	1.282290e-01	1.221230e-03	8	true
204           	smoothSolver	1.191010e-03	1.062020e-04	5	4.222310e-01	3.184180e-02	3	false	GAMG	1.721130e-01	1.261760e-03	8	true
205           	smoothSolver	1.166620e-03	1.050430e-04	5	4.621560e-01	4.295470e-02	3	false	GAMG	1.882320e-01	1.838640e-03	6	true
206           	smoothSolver	1.136490e-03	1.032560e-04	5	4.228360e-01	3.896170e-02	3	false	GAMG	1.899180e-01	1.587290e-03	5	true
207           	smoothSolver	1.114560e-03	1.012590e-04	5	4.677830e-01	3.868130e-02	3	false	GAMG	1.671800e-01	1.466070e-03	6	true
208           	smoothSolver	1.079490e-03	9.913480e-05	5	4.348620e-01	3.567830e-02	3	false	GAMG	1.734090e-01	1.560570e-03	6	true
209           	smoothSolver	1.057840e-03	9.735230e-05	5	4.551800e-01	4.337550e-02	3	false	GAMG	2.191370e-01	1.321680e-03	7	true
210           	smoothSolver	1.043460e-03	9.662550e-05	5	4.472150e-01	3.954520e-02	3	false	GAMG	1.892000e-01	1.262610e-03	8	true
211           	smoothSolver	1.005270e-03	9.454870e-05	5	4.233630e-01	4.024710e-02	3	false	GAMG	1.950800e-01	1.554860e-03	7	true
212           	smoothSolver	1.000380e-03	9.398960e-05	5	4.020770e-01	3.806650e-02	3	false	GAMG	1.998630e-01	1.663150e-03	5	true
213           	smoothSolver	1.006190e-03	9.562870e-05	5	4.227880e-01	3.543590e-02	3	false	GAMG	1.995060e-01	1.408400e-03	8	true
214           	smoothSolver	9.802660e-04	9.416820e-05	5	4.682100e-01	4.623350e-02	3	false	GAMG	2.045850e-01	1.646520e-03	6	true
215           	smoothSolver	9.596120e-04	9.299420e-05	5	4.714940e-01	3.705390e-02	3	false	GAMG	1.973940e-01	1.114020e-03	8	true
216           	smoothSolver	9.423820e-04	9.200490e-05	5	4.279010e-01	3.645040e-02	3	false	GAMG	1.978130e-01	1.239450e-03	7	true
217           	smoothSolver	9.250530e-04	9.136580e-05	5	4.390210e-01	4.136820e-02	3	false	GAMG	2.070690e-01	1.607820e-03	7	true
218           	smoothSolver	9.270750e-04	9.247850e-05	5	4.674910e-01	4.240160e-02	3	false	GAMG	2.250980e-01	2.231660e-03	6	true
219           	smoothSolver	9.316000e-04	6.129520e-05	6	4.797490e-01	4.174930e-02	3	false	GAMG	1.830680e-01	1.167190e-03	7	true
220           	smoothSolver	8.966280e-04	5.973110e-05	6	4.634410e-01	3.686310e-02	3	false	GAMG	1.811170e-01	1.696990e-03	7	true
221           	smoothSolver	8.934110e-04	5.955000e-05	6	4.382780e-01	3.521110e-02	3	false	GAMG	2.081730e-01	1.760980e-03	8	true
222           	smoothSolver	8.953130e-04	5.999810e-05	6	4.458150e-01	4.025990e-02	3	false	GAMG	2.291020e-01	1.867470e-03	5	true
223           	smoothSolver	8.974930e-04	6.056270e-05	6	4.125580e-01	4.052640e-02	3	false	GAMG	2.533670e-01	2.272260e-03	6	true
224           	smoothSolver	8.958240e-04	6.139890e-05	6	4.298210e-01	4.210340e-02	3	false	GAMG	2.419920e-01	1.809860e-03	8	true
225           	smoothSolver	8.971470e-04	6.192150e-05	6	4.728560e-01	3.077710e-02	4	false	GAMG	2.959450e-01	2.888610e-03	6	true
226           	smoothSolver	8.985320e-04	6.203920e-05	6	4.958610e-01	3.325190e-02	4	false	GAMG	1.992980e-01	1.674380e-03	5	true
227           	smoothSolver	9.075850e-04	6.201310e-05	6	4.684710e-01	3.153440e-02	4	false	GAMG	1.993150e-01	1.575860e-03	7	true
228           	smoothSolver	9.236020e-04	6.256750e-05	6	4.468530e-01	3.206030e-02	4	false	GAMG	2.026960e-01	1.771830e-03	5	true
229           	smoothSolver	9.268970e-04	6.235210e-05	6	4.605720e-01	4.389790e-02	3	false	GAMG	2.137410e-01	1.545870e-03	8	true
230           	smoothSolver	9.412500e-04	6.312800e-05	6	5.092490e-01	4.503380e-02	3	false	GAMG	2.073350e-01	1.467280e-03	7	true
231           	smoothSolver	9.371610e-04	6.264210e-05	6	4.710460e-01	3.780540e-02	3	false	GAMG	1.618540e-01	1.546720e-03	5	true
232           	smoothSolver	9.501190e-04	6.251760e-05	6	4.246990e-01	3.608700e-02	3	false	GAMG	1.540490e-01	1.063140e-03	5	true