y,epsilon,k,nut,U_0,U_1,U_2
0.000567512,0.105795,0.00319712,6.88339e-06,0.253001,-7.38519e-08,0
0.000851268,0.0964321,0.00322347,9.9119e-06,0.379501,-1.10778e-07,0
0.00113502,0.0870698,0.00324981,1.29404e-05,0.505999,-1.24778e-07,0
0.00174332,0.0629155,0.00328431,1.94192e-05,0.537942,-2.46001e-07,3.20903e-22
0.00235161,0.038762,0.00331879,2.58979e-05,0.569885,-3.52658e-07,5.19208e-22
0.00267761,0.0348872,0.00330404,2.94461e-05,0.579331,-4.05358e-07,3.96967e-22
0.00300362,0.0310124,0.0032893,3.29942e-05,0.588777,-4.58057e-07,2.74727e-22
0.00332962,0.0271376,0.00327456,3.65424e-05,0.598222,-5.10757e-07,1.52486e-22
0.00470391,0.0179094,0.00323178,5.17783e-05,0.628209,-7.2615e-07,-3.57714e-22
0.00916136,0.00848401,0.00316809,0.000101937,0.6842,-1.36044e-06,0
0.0147607,0.00508547,0.00312814,0.000164359,0.723524,-1.83035e-06,0
0.0152906,0.00489336,0.00312503,0.000170207,0.726467,-1.86515e-06,0
0.0158205,0.00470125,0.00312192,0.000176054,0.729411,-1.85869e-06,0
0.0161045,0.00462421,0.00312039,0.00017916,0.730783,-1.86892e-06,0
0.0163884,0.00454717,0.00311886,0.000182267,0.732155,-1.87916e-06,0
0.0175244,0.004239,0.00311275,0.000194692,0.737642,-1.92009e-06,0
0.0218326,0.00337127,0.00309121,0.000241246,0.755613,-1.83438e-06,0
0.0224851,0.00326652,0.00308809,0.000248234,0.758062,-1.81877e-06,0
0.0231376,0.00316175,0.00308498,0.000255221,0.760512,-1.75728e-06,0
0.0245365,0.00298525,0.00307859,0.000270026,0.765189,-1.68435e-06,7.76397e-22
0.0259353,0.00280874,0.00307219,0.00028483,0.769866,-1.56695e-06,1.28973e-21
0.0274347,0.00265836,0.00306558,0.000300499,0.774356,-1.45071e-06,5.43893e-22
0.0289341,0.00250796,0.00305898,0.000316168,0.778846,-1.29375e-06,5.07667e-23
0.0293359,0.00247561,0.00305726,0.000320311,0.779929,-1.25407e-06,-1.4335e-22
0.0297376,0.00244327,0.00305554,0.000324453,0.781012,-1.21439e-06,-3.37467e-22
0.0305412,0.00237857,0.00305211,0.000332739,0.783178,-1.13503e-06,-7.25701e-22
0.0308626,0.0023527,0.00305073,0.000336053,0.784045,-1.10329e-06,-8.80994e-22
0.0311841,0.00232682,0.00304936,0.000339367,0.784911,-1.07155e-06,-1.03629e-21
0.0374399,0.00192654,0.00302341,0.000402823,0.799984,-2.93701e-07,8.57755e-22
0.0383631,0.00187748,0.00301966,0.000412068,0.802024,-1.7954e-07,1.28663e-21
0.0392863,0.00182841,0.00301592,0.000421317,0.804064,-5.06531e-08,1.49589e-21
0.0412654,0.00174212,0.00300806,0.000440823,0.808044,1.9823e-07,1.29701e-21
0.0432445,0.00165581,0.0030002,0.000460336,0.812024,4.50018e-07,9.94365e-22
0.0453658,0.00157947,0.00299193,0.000480897,0.815917,7.06638e-07,-4.80394e-22
0.0608271,0.00116465,0.00293346,0.00062629,0.84049,2.15345e-06,0
0.0614802,0.00115106,0.00293106,0.000632286,0.841413,2.18239e-06,0
0.0621332,0.00113748,0.00292866,0.000638282,0.842337,2.21134e-06,0
0.0649332,0.00108858,0.00291848,0.000663435,0.845982,2.35674e-06,0
0.0663332,0.00106413,0.00291338,0.000676011,0.847805,2.42944e-06,0
0.0677332,0.00103968,0.00290832,0.000688604,0.849627,2.45668e-06,0
0.0707343,0.000995545,0.00289757,0.000714987,0.85323,2.54291e-06,0
0.0737355,0.000951405,0.00288685,0.000741386,0.856832,2.58043e-06,0
0.0769523,0.000911442,0.00287551,0.00076902,0.860398,2.60119e-06,0
0.0801692,0.00087148,0.00286417,0.00079667,0.863964,2.57365e-06,0
0.0836172,0.000835201,0.00285218,0.00082557,0.867499,2.52817e-06,0
0.0870652,0.000798925,0.00284019,0.000854483,0.871033,2.43849e-06,0
0.090761,0.000765911,0.00282749,0.000884655,0.874541,2.33217e-06,1.93308e-21
0.0944567,0.0007329,0.00281479,0.000914835,0.878049,2.18888e-06,3.37326e-21
0.0984181,0.000702791,0.00280134,0.000946272,0.881536,2.03299e-06,1.48444e-21
0.102379,0.000672685,0.00278788,0.000977713,0.885022,1.84934e-06,7.72367e-23
0.106625,0.000645168,0.0027736,0.0010104,0.88849,1.65953e-06,-1.36122e-23
0.110871,0.000617654,0.00275932,0.00104308,0.891958,1.45178e-06,-2.34788e-22
0.115423,0.000592457,0.00274417,0.00107699,0.895412,1.24603e-06,-1.44187e-22
0.119974,0.000567263,0.00272901,0.00111088,0.898866,1.03143e-06,7.31345e-23
0.124852,0.00054415,0.00271291,0.00114596,0.902309,8.27987e-07,-1.77188e-21
0.12973,0.000521037,0.00269681,0.00118103,0.905752,6.23031e-07,-2.99284e-21
0.134959,0.000499797,0.00267971,0.00121723,0.909187,4.38368e-07,-1.19183e-21
0.140188,0.000478558,0.0026626,0.00125341,0.912622,2.57403e-07,0
0.145792,0.000459008,0.00264443,0.00129065,0.916051,1.05065e-07,0
0.151397,0.000439458,0.00262624,0.00132788,0.919481,-4.04507e-08,0
0.157404,0.000421435,0.00260694,0.00136608,0.922906,-1.50634e-07,0
0.163411,0.000403413,0.00258762,0.00140426,0.926332,-2.5274e-07,0
0.16985,0.000386774,0.00256712,0.00144331,0.929757,-3.15383e-07,0
0.176289,0.000370135,0.0025466,0.00148233,0.933181,-3.70185e-07,0
0.18319,0.000354752,0.00252483,0.0015221,0.936606,-3.84487e-07,0
0.190092,0.000339368,0.00250304,0.00156185,0.94003,-3.92553e-07,0
0.197489,0.000325127,0.00247993,0.0016022,0.943456,-3.62661e-07,0
0.204887,0.000310886,0.0024568,0.00164252,0.946881,-3.29436e-07,0
0.212816,0.000297685,0.00243229,0.00168327,0.950309,-2.64476e-07,0
0.220745,0.000284484,0.00240777,0.001724,0.953736,-2.00089e-07,0
0.229244,0.000272234,0.00238179,0.00176495,0.957166,-1.13047e-07,0
0.237743,0.000259983,0.0023558,0.00180589,0.960596,-3.09929e-08,0
0.246853,0.000248603,0.00232828,0.00184683,0.964028,6.33734e-08,0
0.255962,0.000237221,0.00230076,0.00188776,0.96746,1.48417e-07,0
0.265727,0.000226639,0.00227163,0.0019284,0.970893,2.36049e-07,0
0.275491,0.000216056,0.00224251,0.00196905,0.974327,3.10724e-07,0
0.285957,0.000206207,0.00221171,0.00200912,0.977761,3.80847e-07,0
0.296423,0.000196358,0.00218091,0.00204918,0.981195,4.35328e-07,0
0.307641,0.000187186,0.00214836,0.00208832,0.984628,4.81801e-07,0
0.318859,0.000178014,0.00211582,0.00212746,0.988061,5.10971e-07,0
0.330883,0.000169469,0.00208147,0.00216526,0.99149,5.32445e-07,-5.95772e-22
0.342907,0.000160923,0.00204713,0.00220308,0.994919,5.36097e-07,-8.93657e-22
0.355795,0.00015296,0.00201091,0.00223912,0.99834,5.35645e-07,-3.2584e-22
0.368683,0.000144996,0.0019747,0.00227516,1.00176,5.1783e-07,-4.19311e-23
0.382498,0.000137576,0.00193659,0.00230893,1.00517,5.01442e-07,5.57659e-22
0.396312,0.000130155,0.00189847,0.00234271,1.00858,4.68781e-07,8.57454e-22
0.411119,0.000123245,0.00185844,0.00237367,1.01197,4.43473e-07,2.85818e-22
0.425926,0.000116335,0.0018184,0.00240464,1.01535,4.03308e-07,0
0.441797,0.000109909,0.00177646,0.00243219,1.01871,3.75547e-07,1.37366e-21
0.457668,0.000103482,0.00173453,0.00245975,1.02207,3.34286e-07,2.47789e-21
0.47468,9.75188e-05,0.00169077,0.00248327,1.02539,3.08684e-07,1.18041e-21
0.491692,9.15556e-05,0.00164701,0.00250678,1.02871,2.70691e-07,1.37424e-22
0.509926,8.60423e-05,0.00160159,0.00252558,1.03197,2.4962e-07,-1.25102e-21
0.52816,8.0529e-05,0.00155617,0.00254438,1.03523,2.16969e-07,-2.36713e-21
0.547704,7.54601e-05,0.00150935,0.00255776,1.03842,2.00898e-07,-1.05487e-21
0.567248,7.03913e-05,0.00146253,0.00257113,1.0416,1.73785e-07,0
0.588197,6.57701e-05,0.00141474,0.00257835,1.04469,1.62071e-07,0
0.609146,6.1149e-05,0.00136695,0.00258557,1.04777,1.39713e-07,0
0.6316,5.69884e-05,0.00131883,0.00258591,1.05072,1.31067e-07,0
0.654054,5.28279e-05,0.00127071,0.00258625,1.05366,1.12067e-07,0
0.678122,4.9151e-05,0.00122323,0.00257912,1.05643,1.05223e-07,0
0.70219,4.54742e-05,0.00117574,0.00257198,1.05919,8.82842e-08,0
0.727987,4.2315e-05,0.00113028,0.00255724,1.06171,8.2253e-08,0
0.753784,3.91559e-05,0.00108482,0.00254249,1.06424,6.64207e-08,0
0.781436,3.65591e-05,0.0010434,0.00252123,1.06644,6.06193e-08,0
0.809087,3.39623e-05,0.00100197,0.00249998,1.06864,4.52912e-08,0
0.838725,3.1985e-05,0.000967412,0.00247586,1.07041,3.97265e-08,-9.69921e-22
0.868363,3.00077e-05,0.000932855,0.00245174,1.07218,2.48703e-08,-1.69513e-21
0.900131,2.87288e-05,0.000908947,0.00243169,1.07337,2.09078e-08,-9.42037e-22
0.931899,2.745e-05,0.000885038,0.00241165,1.07456,7.67617e-09,-3.78296e-22
0.965949,2.69947e-05,0.000876233,0.00240367,1.07499,8.44578e-09,1.38677e-21
1,2.65395e-05,0.000867429,0.0023957,1.07542,0,2.70717e-21
