# Solver information
# Time        	U_solver      	Ux_initial    	Ux_final      	Ux_iters      	Uy_initial    	Uy_final      	Uy_iters      	U_converged   	p_solver      	p_initial     	p_final       	p_iters       	p_converged   
1             	smoothSolver	0.000000e+00	0.000000e+00	0	0.000000e+00	0.000000e+00	0	false	GAMG	9.999970e-01	9.019100e-03	17	true
2             	smoothSolver	8.743960e-02	8.089980e-03	7	1.000000e+00	4.142290e-02	2	false	GAMG	1.000000e+00	5.841630e-03	6	true
3             	smoothSolver	2.690020e-02	1.586820e-03	3	5.424730e-01	4.364280e-02	2	false	GAMG	1.814060e-01	1.069590e-03	8	true
4             	smoothSolver	1.827080e-02	1.405890e-03	5	4.533610e-01	2.498620e-02	3	false	GAMG	1.522800e-01	9.408030e-04	6	true
5             	smoothSolver	1.342020e-02	1.285800e-03	5	5.082550e-01	3.967720e-02	3	false	GAMG	1.489730e-01	1.103250e-03	5	true
6             	smoothSolver	1.057730e-02	8.983130e-04	6	5.475170e-01	5.112990e-02	3	false	GAMG	1.278500e-01	1.033440e-03	5	true
7             	smoothSolver	8.561930e-03	8.062130e-04	6	5.114240e-01	3.630340e-02	4	false	GAMG	1.248200e-01	1.081070e-03	6	true
8             	smoothSolver	7.156200e-03	5.616200e-04	7	4.394790e-01	3.992240e-02	4	false	GAMG	1.143440e-01	9.460210e-04	7	true
9             	smoothSolver	6.294920e-03	5.404730e-04	7	3.758150e-01	2.695080e-02	5	false	GAMG	1.080090e-01	1.073580e-03	6	true
10            	smoothSolver	5.668650e-03	5.330730e-04	7	3.395030e-01	2.657210e-02	5	false	GAMG	9.304400e-02	8.006240e-04	8	true
11            	smoothSolver	5.199680e-03	3.999300e-04	8	3.357480e-01	2.793240e-02	5	false	GAMG	9.166300e-02	8.181630e-04	10	true
12            	smoothSolver	4.804140e-03	3.991670e-04	8	3.228380e-01	2.466550e-02	6	false	GAMG	8.516080e-02	8.113620e-04	13	true
13            	smoothSolver	4.561140e-03	4.014010e-04	8	3.139440e-01	2.513860e-02	6	false	GAMG	8.630790e-02	8.536890e-04	11	true
14            	smoothSolver	4.354080e-03	4.060980e-04	8	2.937380e-01	2.629420e-02	6	false	GAMG	8.411440e-02	8.409740e-04	10	true
15            	smoothSolver	4.172770e-03	4.083610e-04	8	2.928480e-01	2.706550e-02	6	false	GAMG	9.157990e-02	9.046990e-04	18	true
16            	smoothSolver	4.028420e-03	3.167990e-04	9	2.611460e-01	2.580290e-02	6	false	GAMG	9.032040e-02	8.904370e-04	17	true
17            	smoothSolver	3.925540e-03	3.205710e-04	9	2.409340e-01	1.958660e-02	7	false	GAMG	8.057760e-02	8.023460e-04	17	true
18            	smoothSolver	3.821110e-03	3.230740e-04	9	2.238880e-01	1.900680e-02	7	false	GAMG	7.381320e-02	7.317310e-04	17	true
19            	smoothSolver	3.793900e-03	3.259500e-04	9	2.073440e-01	1.797860e-02	7	false	GAMG	7.101420e-02	6.600680e-04	17	true
20            	smoothSolver	3.786910e-03	3.289000e-04	9	2.003770e-01	1.723470e-02	7	false	GAMG	6.789410e-02	6.536150e-04	18	true
21            	smoothSolver	3.776420e-03	3.313720e-04	9	1.778980e-01	1.643580e-02	7	false	GAMG	6.191240e-02	6.140520e-04	19	true
22            	smoothSolver	3.757820e-03	3.331090e-04	9	1.733720e-01	1.572080e-02	7	false	GAMG	6.951960e-02	6.764150e-04	19	true
23            	smoothSolver	3.742220e-03	3.344750e-04	9	1.607020e-01	1.511550e-02	7	false	GAMG	6.653490e-02	6.427470e-04	23	true
24            	smoothSolver	3.724560e-03	3.353870e-04	9	1.608390e-01	1.479890e-02	7	false	GAMG	6.786140e-02	6.748380e-04	19	true
25            	smoothSolver	3.711370e-03	3.367040e-04	9	1.456980e-01	1.373370e-02	7	false	GAMG	7.085590e-02	6.946640e-04	17	true
26            	smoothSolver	3.688100e-03	3.371840e-04	9	1.435440e-01	1.365870e-02	7	false	GAMG	6.776430e-02	6.506670e-04	18	true
27            	smoothSolver	3.658890e-03	3.366370e-04	9	1.392030e-01	1.309340e-02	7	false	GAMG	7.478480e-02	7.298920e-04	12	true
28            	smoothSolver	3.643420e-03	3.369570e-04	9	1.345210e-01	1.232200e-02	7	false	GAMG	7.708460e-02	7.322080e-04	14	true
29            	smoothSolver	3.619690e-03	3.369410e-04	9	1.300570e-01	1.215290e-02	7	false	GAMG	7.928190e-02	7.400160e-04	17	true
30            	smoothSolver	3.600250e-03	3.370610e-04	9	1.174590e-01	1.161910e-02	7	false	GAMG	8.109200e-02	7.872430e-04	15	true
31            	smoothSolver	3.576790e-03	3.367570e-04	9	1.169160e-01	1.161330e-02	7	false	GAMG	7.583030e-02	7.401280e-04	14	true
32            	smoothSolver	3.558890e-03	3.368820e-04	9	1.165180e-01	1.135700e-02	7	false	GAMG	8.252810e-02	8.200180e-04	13	true
33            	smoothSolver	3.537030e-03	3.366660e-04	9	1.043400e-01	1.031120e-02	7	false	GAMG	7.525420e-02	6.973600e-04	12	true
34            	smoothSolver	3.512290e-03	3.359020e-04	9	1.027580e-01	1.018750e-02	7	false	GAMG	8.738860e-02	7.780210e-04	10	true
35            	smoothSolver	3.489250e-03	3.351500e-04	9	1.007060e-01	9.690280e-03	7	false	GAMG	8.550910e-02	8.318360e-04	12	true
36            	smoothSolver	3.467020e-03	3.345090e-04	9	1.001370e-01	9.576170e-03	7	false	GAMG	9.273710e-02	9.201340e-04	16	true
37            	smoothSolver	3.445640e-03	3.339470e-04	9	9.640320e-02	9.536780e-03	7	false	GAMG	9.950550e-02	9.705970e-04	20	true
38            	smoothSolver	3.422110e-03	3.329220e-04	9	9.310480e-02	7.265030e-03	8	false	GAMG	8.823300e-02	8.445180e-04	22	true
39            	smoothSolver	3.399310e-03	3.319650e-04	9	9.295740e-02	7.610150e-03	8	false	GAMG	7.849560e-02	7.650850e-04	22	true
40            	smoothSolver	3.377250e-03	3.311110e-04	9	8.360950e-02	7.552510e-03	8	false	GAMG	6.024540e-02	5.988760e-04	24	true
41            	smoothSolver	3.355170e-03	3.301600e-04	9	8.849580e-02	7.488260e-03	8	false	GAMG	6.086630e-02	6.056780e-04	18	true
42            	smoothSolver	3.332900e-03	3.292150e-04	9	8.719470e-02	7.454160e-03	8	false	GAMG	5.813850e-02	5.451110e-04	24	true
43            	smoothSolver	3.312310e-03	3.283860e-04	9	7.772710e-02	7.066870e-03	8	false	GAMG	4.434690e-02	4.024880e-04	24	true
44            	smoothSolver	3.291510e-03	3.275330e-04	9	7.514000e-02	6.812670e-03	8	false	GAMG	4.243990e-02	4.117480e-04	20	true
45            	smoothSolver	3.270580e-03	3.266180e-04	9	7.366460e-02	6.638310e-03	8	false	GAMG	3.752930e-02	3.466070e-04	22	true
46            	smoothSolver	3.249440e-03	2.584900e-04	10	6.983800e-02	6.434590e-03	8	false	GAMG	3.398590e-02	3.360650e-04	22	true
47            	smoothSolver	3.228890e-03	2.579810e-04	10	6.889710e-02	6.328420e-03	8	false	GAMG	3.114740e-02	2.762970e-04	24	true
48            	smoothSolver	3.208840e-03	2.573730e-04	10	6.784970e-02	5.917250e-03	8	false	GAMG	2.822410e-02	2.730070e-04	22	true
49            	smoothSolver	3.188480e-03	2.567140e-04	10	6.149840e-02	5.704520e-03	8	false	GAMG	2.737050e-02	2.639290e-04	22	true
50            	smoothSolver	3.168220e-03	2.560280e-04	10	5.803270e-02	5.573420e-03	8	false	GAMG	2.461560e-02	2.327350e-04	24	true
51            	smoothSolver	3.148490e-03	2.553420e-04	10	5.420210e-02	5.332390e-03	8	false	GAMG	2.315120e-02	2.082310e-04	24	true
52            	smoothSolver	3.128890e-03	2.546790e-04	10	5.374830e-02	5.308960e-03	8	false	GAMG	2.144800e-02	2.011240e-04	26	true
53            	smoothSolver	3.109680e-03	2.540550e-04	10	5.186570e-02	5.103630e-03	8	false	GAMG	2.013620e-02	1.900310e-04	28	true
54            	smoothSolver	3.089560e-03	2.533000e-04	10	4.891910e-02	3.874560e-03	9	false	GAMG	1.878290e-02	1.847560e-04	26	true
55            	smoothSolver	3.069890e-03	2.525610e-04	10	4.742890e-02	3.770440e-03	9	false	GAMG	1.842630e-02	1.823740e-04	32	true
56            	smoothSolver	3.051260e-03	2.519430e-04	10	4.519780e-02	3.750130e-03	9	false	GAMG	1.755400e-02	1.750430e-04	32	true
57            	smoothSolver	3.032110e-03	2.512740e-04	10	4.687450e-02	3.751640e-03	9	false	GAMG	1.707040e-02	1.706400e-04	32	true
58            	smoothSolver	3.013250e-03	2.505960e-04	10	4.433890e-02	3.583730e-03	9	false	GAMG	1.462860e-02	1.461710e-04	39	true
59            	smoothSolver	2.994190e-03	2.498660e-04	10	4.230450e-02	3.556770e-03	9	false	GAMG	1.323770e-02	1.269030e-04	44	true
60            	smoothSolver	2.975230e-03	2.491360e-04	10	4.224110e-02	3.502280e-03	9	false	GAMG	1.283100e-02	1.267200e-04	40	true
61            	smoothSolver	2.956250e-03	2.484080e-04	10	4.227820e-02	3.439720e-03	9	false	GAMG	1.305840e-02	1.274910e-04	42	true
62            	smoothSolver	2.937280e-03	2.476500e-04	10	4.010800e-02	3.395760e-03	9	false	GAMG	1.231920e-02	1.151120e-04	38	true
63            	smoothSolver	2.918180e-03	2.468630e-04	10	3.894970e-02	3.337260e-03	9	false	GAMG	1.168650e-02	1.080370e-04	43	true
64            	smoothSolver	2.899020e-03	2.460530e-04	10	3.713830e-02	3.243060e-03	9	false	GAMG	1.072210e-02	1.048910e-04	39	true
65            	smoothSolver	2.880200e-03	2.452450e-04	10	3.468050e-02	3.123240e-03	9	false	GAMG	1.025920e-02	9.761270e-05	46	true
66            	smoothSolver	2.861440e-03	2.444350e-04	10	3.446710e-02	3.052010e-03	9	false	GAMG	1.081510e-02	1.025330e-04	38	true
67            	smoothSolver	2.842320e-03	2.435750e-04	10	3.438870e-02	3.016630e-03	9	false	GAMG	1.037720e-02	9.812330e-05	42	true
68            	smoothSolver	2.822930e-03	2.426970e-04	10	3.392680e-02	2.974100e-03	9	false	GAMG	1.063750e-02	1.007260e-04	43	true
69            	smoothSolver	2.803630e-03	2.417870e-04	10	3.352550e-02	2.951730e-03	9	false	GAMG	9.365380e-03	7.893930e-05	34	true
70            	smoothSolver	2.784250e-03	2.408580e-04	10	3.323490e-02	2.993460e-03	9	false	GAMG	9.471410e-03	8.416380e-05	45	true
71            	smoothSolver	2.764760e-03	2.399010e-04	10	3.237340e-02	2.989450e-03	9	false	GAMG	9.162690e-03	7.790490e-05	46	true
72            	smoothSolver	2.745300e-03	2.389350e-04	10	3.187060e-02	2.946560e-03	9	false	GAMG	8.746710e-03	8.181150e-05	46	true
73            	smoothSolver	2.725760e-03	2.379570e-04	10	3.171540e-02	2.928790e-03	9	false	GAMG	9.438610e-03	6.259880e-05	40	true
74            	smoothSolver	2.705860e-03	2.369280e-04	10	3.035650e-02	2.914080e-03	9	false	GAMG	9.270010e-03	8.438380e-05	38	true
75            	smoothSolver	2.686080e-03	2.358940e-04	10	3.060750e-02	2.874820e-03	9	false	GAMG	8.827370e-03	8.570290e-05	35	true
76            	smoothSolver	2.666190e-03	2.348350e-04	10	2.900330e-02	2.753570e-03	9	false	GAMG	8.863440e-03	8.442820e-05	31	true
77            	smoothSolver	2.646210e-03	2.337460e-04	10	2.869610e-02	2.733550e-03	9	false	GAMG	8.253970e-03	7.790440e-05	35	true
78            	smoothSolver	2.626190e-03	2.326410e-04	10	2.751490e-02	2.616560e-03	9	false	GAMG	9.002020e-03	8.501150e-05	41	true
79            	smoothSolver	2.606210e-03	2.315280e-04	10	2.688560e-02	2.595580e-03	9	false	GAMG	8.915730e-03	8.706680e-05	43	true
80            	smoothSolver	2.586170e-03	2.303890e-04	10	2.683690e-02	2.513810e-03	9	false	GAMG	8.584360e-03	8.519640e-05	36	true
81            	smoothSolver	2.566150e-03	2.292370e-04	10	2.635580e-02	2.459590e-03	9	false	GAMG	1.029630e-02	9.056630e-05	35	true
82            	smoothSolver	2.545900e-03	2.280650e-04	10	2.527550e-02	2.488190e-03	9	false	GAMG	9.600780e-03	9.276010e-05	32	true
83            	smoothSolver	2.525660e-03	2.268680e-04	10	2.496160e-02	2.459220e-03	9	false	GAMG	9.448110e-03	8.960830e-05	35	true
84            	smoothSolver	2.505550e-03	2.256670e-04	10	2.532930e-02	2.416960e-03	9	false	GAMG	1.075890e-02	1.046080e-04	37	true
85            	smoothSolver	2.485400e-03	2.244530e-04	10	2.496300e-02	2.424180e-03	9	false	GAMG	1.215830e-02	1.186110e-04	41	true
86            	smoothSolver	2.465140e-03	2.232100e-04	10	2.343940e-02	1.894960e-03	10	false	GAMG	1.170410e-02	1.111770e-04	47	true
87            	smoothSolver	2.445050e-03	2.219620e-04	10	2.319870e-02	2.275130e-03	9	false	GAMG	1.219070e-02	1.203330e-04	40	true
88            	smoothSolver	2.424930e-03	2.207050e-04	10	2.261740e-02	2.248520e-03	9	false	GAMG	1.392050e-02	1.339650e-04	39	true
89            	smoothSolver	2.405150e-03	2.194640e-04	10	2.258430e-02	2.189620e-03	9	false	GAMG	1.502480e-02	1.501220e-04	31	true
90            	smoothSolver	2.385500e-03	2.182160e-04	10	2.196090e-02	2.110510e-03	9	false	GAMG	1.755860e-02	1.747370e-04	39	true
91            	smoothSolver	2.365750e-03	2.169550e-04	10	2.119010e-02	2.085460e-03	9	false	GAMG	1.759860e-02	1.679660e-04	33	true
92            	smoothSolver	2.346330e-03	2.156970e-04	10	2.021470e-02	2.010960e-03	9	false	GAMG	2.071650e-02	1.958680e-04	30	true
93            	smoothSolver	2.327130e-03	2.144470e-04	10	2.061310e-02	1.978120e-03	9	false	GAMG	2.104730e-02	1.954830e-04	36	true
94            	smoothSolver	2.308100e-03	2.132060e-04	10	2.042090e-02	1.919440e-03	9	false	GAMG	2.523340e-02	2.441780e-04	31	true
95            	smoothSolver	2.289380e-03	2.119770e-04	10	1.985450e-02	1.890040e-03	9	false	GAMG	3.014930e-02	2.456670e-04	32	true
96            	smoothSolver	2.270920e-03	2.107640e-04	10	1.981830e-02	1.875450e-03	9	false	GAMG	3.358290e-02	3.244310e-04	31	true
97            	smoothSolver	2.252530e-03	2.095400e-04	10	1.907110e-02	1.863960e-03	9	false	GAMG	4.256140e-02	3.797390e-04	33	true
98            	smoothSolver	2.234400e-03	2.083300e-04	10	1.865910e-02	1.790280e-03	9	false	GAMG	5.032090e-02	4.098040e-04	34	true
99            	smoothSolver	2.216680e-03	2.071390e-04	10	1.831330e-02	1.747900e-03	9	false	GAMG	6.602480e-02	6.168280e-04	33	true
100           	smoothSolver	2.199030e-03	2.059430e-04	10	1.768380e-02	1.719320e-03	9	false	GAMG	7.640710e-02	7.400070e-04	33	true
101           	smoothSolver	2.181660e-03	2.047630e-04	10	1.707680e-02	1.672250e-03	9	false	GAMG	5.455380e-02	4.569630e-04	35	true
102           	smoothSolver	2.164680e-03	2.036010e-04	10	1.707600e-02	1.622710e-03	9	false	GAMG	4.783530e-02	4.257920e-04	32	true
103           	smoothSolver	2.147490e-03	2.024180e-04	10	1.690430e-02	1.611800e-03	9	false	GAMG	4.194480e-02	3.737610e-04	32	true
104           	smoothSolver	2.131010e-03	2.012920e-04	10	1.645640e-02	1.564520e-03	9	false	GAMG	3.486370e-02	3.484490e-04	30	true
105           	smoothSolver	2.114370e-03	2.001320e-04	10	1.598230e-02	1.529030e-03	9	false	GAMG	2.859530e-02	2.247070e-04	32	true
106           	smoothSolver	2.097930e-03	1.989920e-04	10	1.622510e-02	1.511990e-03	9	false	GAMG	2.488190e-02	2.455250e-04	30	true
107           	smoothSolver	2.081920e-03	1.978730e-04	10	1.610860e-02	1.499880e-03	9	false	GAMG	2.594540e-02	2.456980e-04	34	true
108           	smoothSolver	2.066280e-03	1.967770e-04	10	1.594520e-02	1.503750e-03	9	false	GAMG	2.414820e-02	1.978300e-04	32	true
109           	smoothSolver	2.050950e-03	1.957020e-04	10	1.590790e-02	1.487640e-03	9	false	GAMG	2.116270e-02	1.970350e-04	35	true
110           	smoothSolver	2.035890e-03	1.946430e-04	10	1.523880e-02	1.449430e-03	9	false	GAMG	1.857210e-02	1.674690e-04	30	true
111           	smoothSolver	2.021170e-03	1.935940e-04	10	1.543260e-02	1.442890e-03	9	false	GAMG	1.882920e-02	1.706340e-04	35	true
112           	smoothSolver	2.006810e-03	1.925810e-04	10	1.446090e-02	1.408730e-03	9	false	GAMG	1.657910e-02	1.585480e-04	34	true
113           	smoothSolver	1.992600e-03	1.915760e-04	10	1.430350e-02	1.370520e-03	9	false	GAMG	1.646170e-02	1.619840e-04	34	true
114           	smoothSolver	1.978740e-03	1.906010e-04	10	1.416080e-02	1.327530e-03	9	false	GAMG	1.431630e-02	1.275580e-04	36	true
115           	smoothSolver	1.965160e-03	1.896420e-04	10	1.395670e-02	1.318420e-03	9	false	GAMG	1.451360e-02	1.438210e-04	32	true
116           	smoothSolver	1.951810e-03	1.886970e-04	10	1.370870e-02	1.277350e-03	9	false	GAMG	1.352800e-02	1.185260e-04	33	true
117           	smoothSolver	1.938910e-03	1.877840e-04	10	1.409140e-02	1.272330e-03	9	false	GAMG	1.324110e-02	1.168430e-04	31	true
118           	smoothSolver	1.926020e-03	1.868710e-04	10	1.361860e-02	1.270180e-03	9	false	GAMG	1.358280e-02	1.309770e-04	32	true
119           	smoothSolver	1.913530e-03	1.859810e-04	10	1.343730e-02	1.260040e-03	9	false	GAMG	1.313460e-02	1.211550e-04	33	true
120           	smoothSolver	1.901210e-03	1.850990e-04	10	1.308590e-02	1.233360e-03	9	false	GAMG	1.217920e-02	1.175670e-04	34	true
121           	smoothSolver	1.889190e-03	1.842420e-04	10	1.318470e-02	1.205530e-03	9	false	GAMG	1.205450e-02	1.198770e-04	29	true
122           	smoothSolver	1.877240e-03	1.833820e-04	10	1.274140e-02	1.190010e-03	9	false	GAMG	1.079320e-02	1.010280e-04	30	true
123           	smoothSolver	1.865600e-03	1.825410e-04	10	1.248600e-02	1.166540e-03	9	false	GAMG	1.131290e-02	1.047350e-04	32	true
124           	smoothSolver	1.854210e-03	1.817210e-04	10	1.237960e-02	1.150610e-03	9	false	GAMG	1.012960e-02	1.002800e-04	33	true
125           	smoothSolver	1.843040e-03	1.809160e-04	10	1.236350e-02	1.154750e-03	9	false	GAMG	1.016120e-02	9.357050e-05	30	true
126           	smoothSolver	1.832050e-03	1.801180e-04	10	1.255020e-02	1.141880e-03	9	false	GAMG	9.771060e-03	9.497340e-05	31	true
127           	smoothSolver	1.821270e-03	1.793360e-04	10	1.186310e-02	1.137740e-03	9	false	GAMG	9.689750e-03	9.436590e-05	32	true
128           	smoothSolver	1.810720e-03	1.785690e-04	10	1.175160e-02	1.116670e-03	9	false	GAMG	9.521840e-03	9.257640e-05	31	true
129           	smoothSolver	1.800420e-03	1.778220e-04	10	1.167470e-02	1.096500e-03	9	false	GAMG	9.678110e-03	9.437830e-05	30	true
130           	smoothSolver	1.790300e-03	1.770840e-04	10	1.164630e-02	1.077980e-03	9	false	GAMG	9.362230e-03	8.950720e-05	28	true
131           	smoothSolver	1.780380e-03	1.763620e-04	10	1.127490e-02	1.059480e-03	9	false	GAMG	8.890040e-03	8.660640e-05	34	true
132           	smoothSolver	1.770870e-03	1.756710e-04	10	1.116590e-02	1.046290e-03	9	false	GAMG	8.778630e-03	8.623860e-05	32	true
133           	smoothSolver	1.761600e-03	1.749980e-04	10	1.101460e-02	1.036050e-03	9	false	GAMG	8.236230e-03	7.022420e-05	31	true
134           	smoothSolver	1.752400e-03	1.743280e-04	10	1.120600e-02	1.023370e-03	9	false	GAMG	9.336960e-03	9.113620e-05	26	true
135           	smoothSolver	1.743460e-03	1.736740e-04	10	1.076780e-02	1.003410e-03	9	false	GAMG	8.594370e-03	8.355760e-05	25	true
136           	smoothSolver	1.734700e-03	1.730350e-04	10	1.070440e-02	1.021950e-03	9	false	GAMG	8.913550e-03	8.054570e-05	26	true
137           	smoothSolver	1.726080e-03	1.724010e-04	10	1.094970e-02	1.027040e-03	9	false	GAMG	9.880210e-03	9.571330e-05	24	true
138           	smoothSolver	1.717660e-03	1.381720e-04	11	1.105040e-02	9.992310e-04	9	false	GAMG	9.575760e-03	9.341810e-05	33	true
139           	smoothSolver	1.709380e-03	1.377870e-04	11	1.043800e-02	9.931850e-04	9	false	GAMG	7.804870e-03	7.513500e-05	48	true
140           	smoothSolver	1.701270e-03	1.373120e-04	11	1.130530e-02	9.893690e-04	9	false	GAMG	9.156130e-03	9.041690e-05	30	true
141           	smoothSolver	1.693240e-03	1.368360e-04	11	1.105950e-02	9.727520e-04	9	false	GAMG	8.439140e-03	8.132750e-05	38	true
142           	smoothSolver	1.685380e-03	1.363710e-04	11	1.062520e-02	9.523090e-04	9	false	GAMG	8.767400e-03	8.753970e-05	24	true
143           	smoothSolver	1.677660e-03	1.359140e-04	11	1.008240e-02	9.412110e-04	9	false	GAMG	7.713360e-03	7.630580e-05	30	true
144           	smoothSolver	1.670070e-03	1.354640e-04	11	1.026460e-02	9.350800e-04	9	false	GAMG	8.965690e-03	8.917400e-05	22	true
145           	smoothSolver	1.662670e-03	1.350270e-04	11	1.001400e-02	9.391940e-04	9	false	GAMG	8.103610e-03	7.787660e-05	43	true
146           	smoothSolver	1.655370e-03	1.345960e-04	11	9.944200e-03	9.431310e-04	9	false	GAMG	7.585870e-03	7.275130e-05	26	true
147           	smoothSolver	1.648190e-03	1.341690e-04	11	1.038240e-02	9.279820e-04	9	false	GAMG	7.516140e-03	7.356030e-05	26	true
148           	smoothSolver	1.641160e-03	1.337530e-04	11	1.001690e-02	9.196210e-04	9	false	GAMG	8.350100e-03	8.103650e-05	24	true
149           	smoothSolver	1.634200e-03	1.333370e-04	11	1.005840e-02	9.017380e-04	9	false	GAMG	8.722910e-03	8.715700e-05	16	true
150           	smoothSolver	1.627400e-03	1.329310e-04	11	1.000150e-02	8.923340e-04	9	false	GAMG	7.342380e-03	7.044190e-05	30	true
151           	smoothSolver	1.620710e-03	1.325330e-04	11	1.005310e-02	9.027590e-04	9	false	GAMG	7.957710e-03	7.250110e-05	24	true
152           	smoothSolver	1.614170e-03	1.321430e-04	11	9.494190e-03	9.012220e-04	9	false	GAMG	7.297690e-03	6.959500e-05	26	true
153           	smoothSolver	1.607710e-03	1.317570e-04	11	9.707570e-03	8.962970e-04	9	false	GAMG	6.946010e-03	6.726600e-05	37	true
154           	smoothSolver	1.601360e-03	1.313770e-04	11	9.490200e-03	8.959960e-04	9	false	GAMG	6.899930e-03	6.790650e-05	30	true
155           	smoothSolver	1.595110e-03	1.310030e-04	11	9.139360e-03	8.856440e-04	9	false	GAMG	6.921570e-03	6.825050e-05	32	true
156           	smoothSolver	1.589040e-03	1.306400e-04	11	9.244480e-03	8.873940e-04	9	false	GAMG	7.257730e-03	7.089790e-05	26	true
157           	smoothSolver	1.583040e-03	1.302790e-04	11	9.370170e-03	8.668110e-04	9	false	GAMG	7.798590e-03	7.542050e-05	20	true
158           	smoothSolver	1.577220e-03	1.299270e-04	11	9.233740e-03	8.440330e-04	9	false	GAMG	7.360840e-03	7.092850e-05	19	true
159           	smoothSolver	1.571440e-03	1.295770e-04	11	9.489790e-03	8.466520e-04	9	false	GAMG	7.268340e-03	7.258320e-05	26	true
160           	smoothSolver	1.565820e-03	1.292360e-04	11	9.449360e-03	8.488180e-04	9	false	GAMG	7.741040e-03	7.533420e-05	22	true
161           	smoothSolver	1.560290e-03	1.289020e-04	11	9.138700e-03	8.334800e-04	9	false	GAMG	7.368200e-03	6.998810e-05	15	true
162           	smoothSolver	1.554870e-03	1.285740e-04	11	9.118090e-03	8.362420e-04	9	false	GAMG	7.693480e-03	7.524600e-05	15	true
163           	smoothSolver	1.549580e-03	1.282600e-04	11	9.207930e-03	8.299450e-04	9	false	GAMG	7.812790e-03	7.786960e-05	29	true
164           	smoothSolver	1.544320e-03	1.279490e-04	11	8.849580e-03	8.326070e-04	9	false	GAMG	7.111240e-03	6.701090e-05	26	true
165           	smoothSolver	1.539160e-03	1.276420e-04	11	8.688940e-03	8.411070e-04	9	false	GAMG	6.361110e-03	6.169620e-05	39	true
166           	smoothSolver	1.534120e-03	1.273420e-04	11	8.871380e-03	8.437770e-04	9	false	GAMG	6.453010e-03	6.364470e-05	31	true
167           	smoothSolver	1.529150e-03	1.270470e-04	11	8.878940e-03	8.183550e-04	9	false	GAMG	7.391030e-03	6.962830e-05	18	true
168           	smoothSolver	1.524290e-03	1.267570e-04	11	8.808630e-03	8.221340e-04	9	false	GAMG	6.946690e-03	6.712080e-05	27	true
169           	smoothSolver	1.519480e-03	1.264710e-04	11	8.564650e-03	8.292100e-04	9	false	GAMG	6.524430e-03	6.383850e-05	33	true
170           	smoothSolver	1.514840e-03	1.261950e-04	11	8.834560e-03	8.160580e-04	9	false	GAMG	6.975890e-03	6.789270e-05	21	true
171           	smoothSolver	1.510230e-03	1.259210e-04	11	9.032260e-03	7.996930e-04	9	false	GAMG	7.859960e-03	7.771560e-05	16	true
172           	smoothSolver	1.505700e-03	1.256520e-04	11	8.643910e-03	7.937510e-04	9	false	GAMG	7.054200e-03	6.973270e-05	22	true
173           	smoothSolver	1.501230e-03	1.253870e-04	11	8.561430e-03	7.910760e-04	9	false	GAMG	6.937500e-03	6.578770e-05	20	true
174           	smoothSolver	1.496860e-03	1.251250e-04	11	8.826470e-03	7.886810e-04	9	false	GAMG	7.286720e-03	7.261040e-05	20	true
175           	smoothSolver	1.492550e-03	1.248680e-04	11	8.626540e-03	7.888550e-04	9	false	GAMG	6.155730e-03	6.116500e-05	32	true
176           	smoothSolver	1.488310e-03	1.246140e-04	11	8.560570e-03	7.934990e-04	9	false	GAMG	7.001060e-03	6.824900e-05	19	true
177           	smoothSolver	1.484210e-03	1.243710e-04	11	8.540920e-03	7.872350e-04	9	false	GAMG	7.399110e-03	7.307570e-05	20	true
178           	smoothSolver	1.480160e-03	1.241300e-04	11	8.350620e-03	7.911650e-04	9	false	GAMG	7.031120e-03	6.976680e-05	22	true
179           	smoothSolver	1.476180e-03	1.238930e-04	11	8.423570e-03	7.835960e-04	9	false	GAMG	7.066460e-03	6.922470e-05	25	true
180           	smoothSolver	1.472250e-03	1.236590e-04	11	8.397470e-03	7.787800e-04	9	false	GAMG	7.398130e-03	7.368490e-05	17	true
181           	smoothSolver	1.468440e-03	1.234300e-04	11	8.146080e-03	7.757620e-04	9	false	GAMG	6.293780e-03	6.054690e-05	33	true
182           	smoothSolver	1.464700e-03	1.232020e-04	11	8.622580e-03	7.690690e-04	9	false	GAMG	7.081820e-03	6.986340e-05	21	true
183           	smoothSolver	1.461030e-03	1.229800e-04	11	8.360930e-03	7.704260e-04	9	false	GAMG	7.161160e-03	7.060890e-05	23	true
184           	smoothSolver	1.457410e-03	1.227600e-04	11	8.407940e-03	7.560770e-04	9	false	GAMG	7.134410e-03	6.814270e-05	23	true
185           	smoothSolver	1.453920e-03	1.225490e-04	11	8.249970e-03	7.530970e-04	9	false	GAMG	7.504800e-03	7.341260e-05	15	true
186           	smoothSolver	1.450390e-03	1.223360e-04	11	8.053780e-03	7.453970e-04	9	false	GAMG	7.564460e-03	7.397050e-05	17	true
187           	smoothSolver	1.447010e-03	1.221330e-04	11	8.301880e-03	7.500270e-04	9	false	GAMG	7.479290e-03	7.336080e-05	21	true
188           	smoothSolver	1.443640e-03	1.219290e-04	11	8.326300e-03	7.530720e-04	9	false	GAMG	6.927510e-03	6.706650e-05	21	true
189           	smoothSolver	1.440390e-03	1.217330e-04	11	7.994720e-03	7.570740e-04	9	false	GAMG	6.793190e-03	6.753170e-05	28	true
190           	smoothSolver	1.437140e-03	1.215370e-04	11	8.070590e-03	7.652270e-04	9	false	GAMG	7.296770e-03	7.279830e-05	21	true
191           	smoothSolver	1.433940e-03	1.213420e-04	11	8.097070e-03	7.608950e-04	9	false	GAMG	6.774890e-03	6.676830e-05	23	true
192           	smoothSolver	1.430870e-03	1.211570e-04	11	8.206830e-03	7.582070e-04	9	false	GAMG	6.951510e-03	6.777710e-05	16	true
193           	smoothSolver	1.427840e-03	1.209760e-04	11	8.443120e-03	7.721340e-04	9	false	GAMG	7.873120e-03	7.829010e-05	15	true
194           	smoothSolver	1.424850e-03	1.207960e-04	11	8.253770e-03	7.605520e-04	9	false	GAMG	7.325300e-03	7.240220e-05	17	true
195           	smoothSolver	1.421930e-03	1.206200e-04	11	8.428840e-03	7.607680e-04	9	false	GAMG	7.337630e-03	7.256430e-05	16	true
196           	smoothSolver	1.419050e-03	1.204460e-04	11	8.313580e-03	7.574680e-04	9	false	GAMG	7.272200e-03	7.066920e-05	21	true
197           	smoothSolver	1.416230e-03	1.202780e-04	11	8.115970e-03	7.477180e-04	9	false	GAMG	7.500120e-03	7.406400e-05	14	true
198           	smoothSolver	1.413460e-03	1.201100e-04	11	8.142210e-03	7.514310e-04	9	false	GAMG	7.419360e-03	7.337450e-05	16	true
199           	smoothSolver	1.410830e-03	1.199500e-04	11	8.238410e-03	7.707890e-04	9	false	GAMG	6.925150e-03	6.791810e-05	29	true
200           	smoothSolver	1.408210e-03	1.197910e-04	11	8.091280e-03	7.749290e-04	9	false	GAMG	6.586100e-03	6.504200e-05	28	true
201           	smoothSolver	1.405620e-03	1.196330e-04	11	7.974960e-03	7.643320e-04	9	false	GAMG	6.874070e-03	6.861560e-05	21	true
202           	smoothSolver	1.403130e-03	1.194810e-04	11	7.892790e-03	7.600570e-04	9	false	GAMG	6.483780e-03	6.255470e-05	25	true
203           	smoothSolver	1.400640e-03	1.193300e-04	11	8.331790e-03	7.629610e-04	9	false	GAMG	7.514350e-03	7.433970e-05	13	true
204           	smoothSolver	1.398250e-03	1.191850e-04	11	8.064670e-03	7.484750e-04	9	false	GAMG	6.813260e-03	6.688090e-05	21	true
205           	smoothSolver	1.395880e-03	1.190450e-04	11	8.161750e-03	7.546810e-04	9	false	GAMG	7.335980e-03	7.067430e-05	16	true
206           	smoothSolver	1.393550e-03	1.189090e-04	11	8.138650e-03	7.350500e-04	9	false	GAMG	7.127810e-03	7.097420e-05	28	true
207           	smoothSolver	1.391280e-03	1.187760e-04	11	7.787460e-03	7.410510e-04	9	false	GAMG	6.984350e-03	6.882730e-05	19	true
208           	smoothSolver	1.389050e-03	1.186450e-04	11	8.166480e-03	7.366580e-04	9	false	GAMG	8.086150e-03	7.936690e-05	7	true
209           	smoothSolver	1.386840e-03	1.185150e-04	11	8.041600e-03	7.396780e-04	9	false	GAMG	7.681390e-03	7.545810e-05	23	true
210           	smoothSolver	1.384690e-03	1.183890e-04	11	8.182510e-03	7.377950e-04	9	false	GAMG	7.768200e-03	7.549350e-05	15	true
211           	smoothSolver	1.382580e-03	1.182650e-04	11	8.155900e-03	7.509780e-04	9	false	GAMG	7.294000e-03	7.268490e-05	24	true
212           	smoothSolver	1.380500e-03	1.181420e-04	11	8.100250e-03	7.545790e-04	9	false	GAMG	7.839620e-03	7.831680e-05	16	true
213           	smoothSolver	1.378470e-03	1.180220e-04	11	8.557130e-03	7.625170e-04	9	false	GAMG	8.037780e-03	7.867890e-05	17	true
214           	smoothSolver	1.376470e-03	1.179030e-04	11	8.427810e-03	7.563910e-04	9	false	GAMG	6.956080e-03	6.780500e-05	23	true
215           	smoothSolver	1.374540e-03	1.177910e-04	11	8.283240e-03	7.713530e-04	9	false	GAMG	7.528030e-03	7.287110e-05	16	true
216           	smoothSolver	1.372670e-03	1.176830e-04	11	8.740010e-03	7.620820e-04	9	false	GAMG	7.496060e-03	7.486290e-05	17	true
217           	smoothSolver	1.370820e-03	1.175760e-04	11	8.251690e-03	7.634140e-04	9	false	GAMG	7.570800e-03	7.543950e-05	20	true
218           	smoothSolver	1.369000e-03	1.174690e-04	11	7.882090e-03	7.542780e-04	9	false	GAMG	7.415090e-03	7.352380e-05	19	true
219           	smoothSolver	1.367210e-03	1.173640e-04	11	7.776390e-03	7.550180e-04	9	false	GAMG	6.546780e-03	6.247940e-05	33	true
220           	smoothSolver	1.365550e-03	1.172670e-04	11	7.832950e-03	7.578480e-04	9	false	GAMG	7.770410e-03	7.758080e-05	17	true
221           	smoothSolver	1.363870e-03	1.171690e-04	11	7.777650e-03	7.423400e-04	9	false	GAMG	7.647140e-03	7.422620e-05	17	true
222           	smoothSolver	1.362290e-03	1.170760e-04	11	8.010790e-03	7.488870e-04	9	false	GAMG	7.861470e-03	7.857080e-05	17	true
223           	smoothSolver	1.360670e-03	1.169800e-04	11	8.075380e-03	7.502700e-04	9	false	GAMG	7.228930e-03	7.104890e-05	21	true
224           	smoothSolver	1.359150e-03	1.168900e-04	11	7.919100e-03	7.540130e-04	9	false	GAMG	7.355280e-03	7.288540e-05	21	true
225           	smoothSolver	1.357620e-03	1.168000e-04	11	8.114560e-03	7.613080e-04	9	false	GAMG	8.214810e-03	8.083380e-05	19	true
226           	smoothSolver	1.356150e-03	1.167130e-04	11	8.146830e-03	7.552940e-04	9	false	GAMG	7.503310e-03	7.279200e-05	21	true
227           	smoothSolver	1.354700e-03	1.166280e-04	11	8.109860e-03	7.447880e-04	9	false	GAMG	7.799820e-03	7.591740e-05	18	true
228           	smoothSolver	1.353280e-03	1.165440e-04	11	8.356300e-03	7.484240e-04	9	false	GAMG	8.359770e-03	8.092940e-05	13	true
229           	smoothSolver	1.351890e-03	1.164610e-04	11	7.722750e-03	7.407180e-04	9	false	GAMG	6.860180e-03	6.653120e-05	22	true