# Solver information
# Time        	U_solver      	Ux_initial    	Ux_final      	Ux_iters      	Uy_initial    	Uy_final      	Uy_iters      	U_converged   	p_solver      	p_initial     	p_final       	p_iters       	p_converged   
1             	smoothSolver	0.000000e+00	0.000000e+00	0	0.000000e+00	0.000000e+00	0	false	GAMG	9.999970e-01	7.724340e-03	19	true
2             	smoothSolver	8.640470e-02	8.038840e-03	8	1.000000e+00	9.438890e-02	2	false	GAMG	1.000000e+00	8.465300e-03	5	true
3             	smoothSolver	1.757900e-02	1.660820e-03	4	4.547100e-01	3.921140e-02	3	false	GAMG	1.678020e-01	1.529390e-03	6	true
4             	smoothSolver	1.417320e-02	1.183500e-03	7	3.716670e-01	2.584420e-02	4	false	GAMG	1.374880e-01	8.396130e-04	6	true
5             	smoothSolver	1.070510e-02	9.892070e-04	7	3.559380e-01	2.856480e-02	4	false	GAMG	1.331510e-01	1.109020e-03	5	true
6             	smoothSolver	8.537750e-03	6.900300e-04	8	3.782000e-01	3.772370e-02	4	false	GAMG	1.227620e-01	9.178910e-04	4	true
7             	smoothSolver	7.146760e-03	6.223560e-04	8	4.149260e-01	3.161920e-02	5	false	GAMG	1.153310e-01	9.900490e-04	4	true
8             	smoothSolver	6.134340e-03	5.722530e-04	8	3.943150e-01	3.429520e-02	5	false	GAMG	1.142740e-01	9.024760e-04	4	true
9             	smoothSolver	5.365300e-03	5.350690e-04	8	3.390340e-01	3.306770e-02	5	false	GAMG	1.097860e-01	1.074880e-03	4	true
10            	smoothSolver	4.794370e-03	3.923070e-04	9	2.871100e-01	2.468940e-02	6	false	GAMG	1.102880e-01	1.012880e-03	5	true
11            	smoothSolver	4.333000e-03	3.736450e-04	9	2.501600e-01	2.486480e-02	6	false	GAMG	1.033440e-01	8.522160e-04	5	true
12            	smoothSolver	3.958380e-03	3.573220e-04	9	2.162660e-01	1.879470e-02	7	false	GAMG	9.771470e-02	7.684010e-04	6	true
13            	smoothSolver	3.657500e-03	3.438790e-04	9	1.899740e-01	1.720000e-02	7	false	GAMG	9.647470e-02	9.140180e-04	6	true
14            	smoothSolver	3.400110e-03	3.321010e-04	9	1.705840e-01	1.561960e-02	7	false	GAMG	9.708560e-02	7.692010e-04	8	true
15            	smoothSolver	3.195880e-03	2.538250e-04	10	1.514470e-01	1.425960e-02	7	false	GAMG	9.839780e-02	8.604160e-04	6	true
16            	smoothSolver	3.015800e-03	2.472910e-04	10	1.363160e-01	1.088960e-02	8	false	GAMG	9.113540e-02	8.705630e-04	6	true
17            	smoothSolver	2.869120e-03	2.417130e-04	10	1.221390e-01	9.830020e-03	8	false	GAMG	9.145090e-02	7.140640e-04	6	true
18            	smoothSolver	2.739950e-03	2.366150e-04	10	1.123600e-01	9.298990e-03	8	false	GAMG	8.912520e-02	6.929950e-04	6	true
19            	smoothSolver	2.651580e-03	2.322260e-04	10	1.050470e-01	8.765520e-03	8	false	GAMG	9.097210e-02	7.321530e-04	6	true
20            	smoothSolver	2.605170e-03	2.279330e-04	10	9.455500e-02	8.201280e-03	8	false	GAMG	9.024270e-02	8.858000e-04	6	true
21            	smoothSolver	2.563420e-03	2.240990e-04	10	8.600110e-02	7.554150e-03	8	false	GAMG	8.590830e-02	7.041680e-04	8	true
22            	smoothSolver	2.525900e-03	2.206420e-04	10	7.974530e-02	7.267760e-03	8	false	GAMG	8.575230e-02	7.933730e-04	8	true
23            	smoothSolver	2.497110e-03	2.179500e-04	10	7.251610e-02	6.786410e-03	8	false	GAMG	8.946320e-02	7.506090e-04	8	true
24            	smoothSolver	2.463970e-03	2.151370e-04	10	7.056970e-02	6.925700e-03	8	false	GAMG	8.922810e-02	8.419550e-04	6	true
25            	smoothSolver	2.434930e-03	2.125170e-04	10	6.983140e-02	5.431110e-03	9	false	GAMG	8.925220e-02	7.629040e-04	8	true
26            	smoothSolver	2.408560e-03	2.102970e-04	10	6.315790e-02	5.234860e-03	9	false	GAMG	8.546940e-02	8.414500e-04	7	true
27            	smoothSolver	2.383240e-03	2.082070e-04	10	6.248790e-02	5.044930e-03	9	false	GAMG	8.618030e-02	5.974770e-04	8	true
28            	smoothSolver	2.359640e-03	2.062920e-04	10	6.060270e-02	5.013600e-03	9	false	GAMG	8.547260e-02	6.870160e-04	8	true
29            	smoothSolver	2.336920e-03	2.044730e-04	10	5.910750e-02	4.987830e-03	9	false	GAMG	8.351260e-02	7.759340e-04	8	true
30            	smoothSolver	2.315350e-03	2.027800e-04	10	5.639050e-02	4.821940e-03	9	false	GAMG	8.879060e-02	7.627840e-04	8	true
31            	smoothSolver	2.294210e-03	2.011660e-04	10	5.603960e-02	4.841480e-03	9	false	GAMG	8.581650e-02	7.830500e-04	9	true
32            	smoothSolver	2.274290e-03	1.995890e-04	10	5.642890e-02	4.874540e-03	9	false	GAMG	9.772150e-02	9.492220e-04	7	true
33            	smoothSolver	2.254840e-03	1.980820e-04	10	5.432850e-02	4.695600e-03	9	false	GAMG	9.655360e-02	8.481070e-04	10	true
34            	smoothSolver	2.237390e-03	1.967450e-04	10	5.302950e-02	4.673030e-03	9	false	GAMG	9.180710e-02	9.059710e-04	7	true
35            	smoothSolver	2.219770e-03	1.954620e-04	10	5.277580e-02	4.658150e-03	9	false	GAMG	9.466550e-02	7.313730e-04	10	true
36            	smoothSolver	2.204350e-03	1.942750e-04	10	5.085110e-02	4.624820e-03	9	false	GAMG	9.579710e-02	7.548920e-04	8	true
37            	smoothSolver	2.188190e-03	1.931400e-04	10	4.818880e-02	4.420970e-03	9	false	GAMG	9.614040e-02	7.777260e-04	8	true
38            	smoothSolver	2.173930e-03	1.921250e-04	10	4.674680e-02	4.374500e-03	9	false	GAMG	9.976770e-02	9.471750e-04	7	true
39            	smoothSolver	2.159500e-03	1.911170e-04	10	4.668420e-02	4.440870e-03	9	false	GAMG	9.522580e-02	8.941670e-04	9	true
40            	smoothSolver	2.145650e-03	1.901440e-04	10	4.663040e-02	4.481800e-03	9	false	GAMG	9.953570e-02	8.434660e-04	8	true
41            	smoothSolver	2.131700e-03	1.891860e-04	10	4.654900e-02	4.408130e-03	9	false	GAMG	1.024580e-01	8.724320e-04	8	true
42            	smoothSolver	2.119360e-03	1.883180e-04	10	4.633660e-02	4.350710e-03	9	false	GAMG	1.092430e-01	9.392980e-04	8	true
43            	smoothSolver	2.106860e-03	1.875030e-04	10	4.625300e-02	4.361580e-03	9	false	GAMG	1.093270e-01	1.063320e-03	8	true
44            	smoothSolver	2.094480e-03	1.866880e-04	10	4.385280e-02	4.203940e-03	9	false	GAMG	1.185790e-01	1.176610e-03	6	true
45            	smoothSolver	2.082650e-03	1.859140e-04	10	4.275920e-02	4.141190e-03	9	false	GAMG	1.145830e-01	1.089680e-03	8	true
46            	smoothSolver	2.070890e-03	1.851370e-04	10	4.270730e-02	4.137530e-03	9	false	GAMG	9.838740e-02	8.403070e-04	12	true
47            	smoothSolver	2.059510e-03	1.843890e-04	10	4.503360e-02	4.220590e-03	9	false	GAMG	1.240270e-01	1.230730e-03	7	true
48            	smoothSolver	2.048470e-03	1.836770e-04	10	4.410880e-02	4.202610e-03	9	false	GAMG	1.232300e-01	1.083330e-03	9	true
49            	smoothSolver	2.037660e-03	1.830000e-04	10	4.242590e-02	4.183890e-03	9	false	GAMG	1.102120e-01	9.230980e-04	9	true
50            	smoothSolver	2.027190e-03	1.823240e-04	10	4.264560e-02	4.122570e-03	9	false	GAMG	1.232340e-01	1.095930e-03	9	true
51            	smoothSolver	2.016390e-03	1.816170e-04	10	4.186640e-02	4.100260e-03	9	false	GAMG	1.215550e-01	1.189030e-03	7	true
52            	smoothSolver	2.006080e-03	1.809390e-04	10	4.000580e-02	3.891760e-03	9	false	GAMG	1.139450e-01	9.974100e-04	11	true
53            	smoothSolver	1.996030e-03	1.802950e-04	10	3.930320e-02	3.809600e-03	9	false	GAMG	1.246290e-01	1.037540e-03	7	true
54            	smoothSolver	1.986130e-03	1.796700e-04	10	3.840000e-02	3.751340e-03	9	false	GAMG	1.123920e-01	9.859920e-04	8	true
55            	smoothSolver	1.976580e-03	1.790760e-04	10	3.901940e-02	3.826230e-03	9	false	GAMG	1.130610e-01	9.829460e-04	9	true
56            	smoothSolver	1.966810e-03	1.784430e-04	10	3.855620e-02	3.740890e-03	9	false	GAMG	1.193880e-01	1.148000e-03	7	true
57            	smoothSolver	1.957310e-03	1.778460e-04	10	3.859120e-02	3.694230e-03	9	false	GAMG	1.227150e-01	1.169860e-03	7	true
58            	smoothSolver	1.948010e-03	1.772650e-04	10	3.715930e-02	3.556590e-03	9	false	GAMG	1.324690e-01	1.263160e-03	6	true
59            	smoothSolver	1.938620e-03	1.766780e-04	10	3.502140e-02	3.442940e-03	9	false	GAMG	1.228500e-01	1.067800e-03	8	true
60            	smoothSolver	1.929120e-03	1.760710e-04	10	3.586930e-02	3.463850e-03	9	false	GAMG	1.147540e-01	1.107880e-03	7	true
61            	smoothSolver	1.919980e-03	1.754820e-04	10	3.568400e-02	3.430250e-03	9	false	GAMG	1.314800e-01	1.087800e-03	8	true
62            	smoothSolver	1.910900e-03	1.749000e-04	10	3.411850e-02	3.326370e-03	9	false	GAMG	1.233270e-01	1.207100e-03	6	true
63            	smoothSolver	1.902120e-03	1.743410e-04	10	3.505070e-02	3.385650e-03	9	false	GAMG	1.132510e-01	1.060590e-03	8	true
64            	smoothSolver	1.893330e-03	1.737890e-04	10	3.408630e-02	3.279160e-03	9	false	GAMG	1.103400e-01	9.687480e-04	9	true
65            	smoothSolver	1.884680e-03	1.732420e-04	10	3.390260e-02	3.279350e-03	9	false	GAMG	1.257710e-01	1.104950e-03	6	true
66            	smoothSolver	1.876060e-03	1.726970e-04	10	3.432830e-02	3.225110e-03	9	false	GAMG	1.300370e-01	1.225280e-03	7	true
67            	smoothSolver	1.867520e-03	1.721640e-04	10	3.298490e-02	3.166630e-03	9	false	GAMG	1.242340e-01	1.136770e-03	6	true
68            	smoothSolver	1.858950e-03	1.716220e-04	10	3.266300e-02	3.087700e-03	9	false	GAMG	1.305900e-01	1.186580e-03	7	true
69            	smoothSolver	1.850360e-03	1.710810e-04	10	3.114850e-02	3.016260e-03	9	false	GAMG	1.158250e-01	1.092710e-03	9	true
70            	smoothSolver	1.841950e-03	1.705340e-04	10	3.107260e-02	2.943930e-03	9	false	GAMG	1.239560e-01	9.918090e-04	8	true
71            	smoothSolver	1.833690e-03	1.700080e-04	10	3.142480e-02	2.916900e-03	9	false	GAMG	1.234520e-01	1.026930e-03	8	true
72            	smoothSolver	1.825460e-03	1.694820e-04	10	3.225960e-02	2.909210e-03	9	false	GAMG	1.321790e-01	1.187470e-03	6	true
73            	smoothSolver	1.817400e-03	1.689710e-04	10	3.141060e-02	2.837140e-03	9	false	GAMG	1.296650e-01	1.110690e-03	8	true
74            	smoothSolver	1.809150e-03	1.684400e-04	10	2.973680e-02	2.779720e-03	9	false	GAMG	1.224050e-01	1.123280e-03	6	true
75            	smoothSolver	1.801230e-03	1.679180e-04	10	2.960320e-02	2.717220e-03	9	false	GAMG	1.263070e-01	1.158790e-03	6	true
76            	smoothSolver	1.793090e-03	1.673980e-04	10	2.922620e-02	2.629020e-03	9	false	GAMG	1.280680e-01	1.214370e-03	7	true
77            	smoothSolver	1.785090e-03	1.668760e-04	10	2.960690e-02	2.622910e-03	9	false	GAMG	1.410920e-01	1.247650e-03	7	true
78            	smoothSolver	1.777120e-03	1.663540e-04	10	2.674390e-02	2.472480e-03	9	false	GAMG	1.257210e-01	1.076350e-03	5	true
79            	smoothSolver	1.769160e-03	1.658430e-04	10	2.724350e-02	2.434530e-03	9	false	GAMG	1.259690e-01	1.077370e-03	6	true
80            	smoothSolver	1.761340e-03	1.653350e-04	10	2.762680e-02	2.508030e-03	9	false	GAMG	1.269100e-01	1.135560e-03	6	true
81            	smoothSolver	1.753510e-03	1.648250e-04	10	2.718240e-02	2.400130e-03	9	false	GAMG	1.381970e-01	1.215290e-03	6	true
82            	smoothSolver	1.745820e-03	1.643240e-04	10	2.786890e-02	2.282890e-03	9	false	GAMG	1.442150e-01	1.434030e-03	4	true
83            	smoothSolver	1.738120e-03	1.638170e-04	10	2.700620e-02	2.283940e-03	9	false	GAMG	1.390370e-01	1.309720e-03	5	true
84            	smoothSolver	1.730640e-03	1.633230e-04	10	2.716740e-02	2.219630e-03	9	false	GAMG	1.434600e-01	9.442380e-04	5	true
85            	smoothSolver	1.723100e-03	1.628300e-04	10	2.590830e-02	2.097080e-03	9	false	GAMG	1.347890e-01	1.029520e-03	4	true
86            	smoothSolver	1.715620e-03	1.623350e-04	10	2.687360e-02	2.145590e-03	9	false	GAMG	1.291870e-01	1.099120e-03	5	true
87            	smoothSolver	1.708160e-03	1.618340e-04	10	2.646390e-02	2.148320e-03	9	false	GAMG	1.342310e-01	1.149040e-03	4	true
88            	smoothSolver	1.700750e-03	1.613430e-04	10	2.615870e-02	2.116820e-03	9	false	GAMG	1.398520e-01	1.122050e-03	5	true
89            	smoothSolver	1.693460e-03	1.608550e-04	10	2.582610e-02	2.162330e-03	9	false	GAMG	1.300460e-01	1.176770e-03	5	true
90            	smoothSolver	1.686100e-03	1.603640e-04	10	2.646020e-02	2.116530e-03	9	false	GAMG	1.366590e-01	1.136790e-03	5	true
91            	smoothSolver	1.678910e-03	1.598770e-04	10	2.637910e-02	2.567810e-03	8	false	GAMG	1.503670e-01	1.491140e-03	4	true
92            	smoothSolver	1.671650e-03	1.593920e-04	10	2.535690e-02	2.483320e-03	8	false	GAMG	1.378580e-01	1.142710e-03	5	true
93            	smoothSolver	1.664510e-03	1.589140e-04	10	2.462070e-02	1.966750e-03	9	false	GAMG	1.309200e-01	1.073810e-03	5	true
94            	smoothSolver	1.657380e-03	1.584300e-04	10	2.555500e-02	2.379980e-03	8	false	GAMG	1.390270e-01	1.069330e-03	4	true
95            	smoothSolver	1.650230e-03	1.579450e-04	10	2.446460e-02	2.295270e-03	8	false	GAMG	1.318160e-01	1.171950e-03	4	true
96            	smoothSolver	1.643190e-03	1.574650e-04	10	2.491680e-02	2.233100e-03	8	false	GAMG	1.356600e-01	1.163680e-03	4	true
97            	smoothSolver	1.636110e-03	1.569800e-04	10	2.398010e-02	2.324570e-03	8	false	GAMG	1.241890e-01	1.111220e-03	5	true
98            	smoothSolver	1.629120e-03	1.565020e-04	10	2.411730e-02	2.255910e-03	8	false	GAMG	1.349010e-01	1.003700e-03	5	true
99            	smoothSolver	1.622320e-03	1.560350e-04	10	2.429270e-02	2.247790e-03	8	false	GAMG	1.489400e-01	1.314500e-03	5	true
100           	smoothSolver	1.615400e-03	1.555630e-04	10	2.478380e-02	2.169200e-03	8	false	GAMG	1.512340e-01	1.509050e-03	4	true
101           	smoothSolver	1.608560e-03	1.550900e-04	10	2.362480e-02	2.124490e-03	8	false	GAMG	1.412640e-01	1.164320e-03	5	true
102           	smoothSolver	1.601800e-03	1.546230e-04	10	2.321220e-02	2.090020e-03	8	false	GAMG	1.340890e-01	1.234830e-03	4	true
103           	smoothSolver	1.594950e-03	1.541470e-04	10	2.287120e-02	2.014980e-03	8	false	GAMG	1.349170e-01	1.074930e-03	4	true
104           	smoothSolver	1.588130e-03	1.536740e-04	10	2.380420e-02	2.034840e-03	8	false	GAMG	1.531850e-01	1.117640e-03	4	true
105           	smoothSolver	1.581380e-03	1.531990e-04	10	2.518550e-02	2.032930e-03	8	false	GAMG	1.607250e-01	1.291150e-03	4	true
106           	smoothSolver	1.574570e-03	1.527220e-04	10	2.419810e-02	2.105810e-03	8	false	GAMG	1.338950e-01	1.278820e-03	4	true
107           	smoothSolver	1.567890e-03	1.522500e-04	10	2.423960e-02	2.056760e-03	8	false	GAMG	1.431910e-01	1.010340e-03	4	true
108           	smoothSolver	1.561210e-03	1.517790e-04	10	2.732920e-02	2.725740e-03	7	false	GAMG	1.538900e-01	1.013130e-03	4	true
109           	smoothSolver	1.554650e-03	1.513160e-04	10	2.622510e-02	2.118090e-03	8	false	GAMG	1.429670e-01	1.011760e-03	4	true
110           	smoothSolver	1.548080e-03	1.508570e-04	10	2.651360e-02	2.087080e-03	8	false	GAMG	1.449110e-01	1.237150e-03	4	true
111           	smoothSolver	1.541540e-03	1.503940e-04	10	2.569660e-02	2.539420e-03	7	false	GAMG	1.392460e-01	1.116580e-03	4	true
112           	smoothSolver	1.535090e-03	1.499340e-04	10	2.584960e-02	2.042040e-03	8	false	GAMG	1.460210e-01	1.023000e-03	4	true
113           	smoothSolver	1.528740e-03	1.494770e-04	10	2.338190e-02	1.990110e-03	8	false	GAMG	1.415600e-01	1.348870e-03	4	true
114           	smoothSolver	1.522340e-03	1.490220e-04	10	2.402960e-02	1.917190e-03	8	false	GAMG	1.395000e-01	1.119920e-03	4	true
115           	smoothSolver	1.516050e-03	1.485750e-04	10	2.426100e-02	2.374260e-03	7	false	GAMG	1.502360e-01	1.070880e-03	4	true
116           	smoothSolver	1.509620e-03	1.481140e-04	10	2.367690e-02	1.927160e-03	8	false	GAMG	1.479190e-01	8.620570e-04	4	true
117           	smoothSolver	1.503310e-03	1.476640e-04	10	2.398350e-02	1.952420e-03	8	false	GAMG	1.411530e-01	1.057980e-03	4	true
118           	smoothSolver	1.497080e-03	1.472090e-04	10	2.370030e-02	1.895990e-03	8	false	GAMG	1.556200e-01	1.188990e-03	4	true
119           	smoothSolver	1.490800e-03	1.467540e-04	10	2.561050e-02	1.987720e-03	8	false	GAMG	1.621380e-01	1.342030e-03	4	true
120           	smoothSolver	1.484570e-03	1.463010e-04	10	2.408250e-02	2.336480e-03	7	false	GAMG	1.418960e-01	1.333950e-03	4	true
121           	smoothSolver	1.478380e-03	1.458470e-04	10	2.497540e-02	2.447790e-03	7	false	GAMG	1.510200e-01	1.493300e-03	4	true
122           	smoothSolver	1.472160e-03	1.453870e-04	10	2.564980e-02	2.334600e-03	7	false	GAMG	1.424510e-01	1.164750e-03	4	true
123           	smoothSolver	1.466060e-03	1.449360e-04	10	2.371680e-02	1.858230e-03	8	false	GAMG	1.449140e-01	1.339400e-03	5	true
124           	smoothSolver	1.460020e-03	1.444880e-04	10	2.380880e-02	2.234760e-03	7	false	GAMG	1.515190e-01	1.160430e-03	5	true
125           	smoothSolver	1.453900e-03	1.440350e-04	10	2.455550e-02	1.963920e-03	8	false	GAMG	1.512740e-01	1.460460e-03	4	true
126           	smoothSolver	1.447960e-03	1.435920e-04	10	2.201240e-02	1.826660e-03	8	false	GAMG	1.500620e-01	1.291860e-03	5	true
127           	smoothSolver	1.442070e-03	1.431630e-04	10	2.299770e-02	1.858480e-03	8	false	GAMG	1.495820e-01	1.274950e-03	5	true
128           	smoothSolver	1.436150e-03	1.427300e-04	10	2.305070e-02	2.236870e-03	7	false	GAMG	1.488690e-01	1.224390e-03	4	true
129           	smoothSolver	1.430290e-03	1.422980e-04	10	2.263240e-02	2.258800e-03	7	false	GAMG	1.420520e-01	1.095720e-03	5	true
130           	smoothSolver	1.424430e-03	1.418650e-04	10	2.348010e-02	2.326020e-03	7	false	GAMG	1.449100e-01	1.438440e-03	4	true
131           	smoothSolver	1.418710e-03	1.414420e-04	10	2.126300e-02	2.099470e-03	7	false	GAMG	1.364250e-01	1.168030e-03	4	true
132           	smoothSolver	1.412900e-03	1.410150e-04	10	2.355600e-02	2.225650e-03	7	false	GAMG	1.508340e-01	1.125580e-03	4	true
133           	smoothSolver	1.407230e-03	1.405940e-04	10	2.429450e-02	2.098320e-03	7	false	GAMG	1.580230e-01	1.159760e-03	4	true
134           	smoothSolver	1.401510e-03	1.127890e-04	11	2.415790e-02	2.270730e-03	7	false	GAMG	1.470470e-01	9.344950e-04	4	true
135           	smoothSolver	1.395770e-03	1.125320e-04	11	2.356750e-02	2.221910e-03	7	false	GAMG	1.366680e-01	8.106760e-04	4	true
136           	smoothSolver	1.390160e-03	1.121950e-04	11	2.334420e-02	2.313480e-03	7	false	GAMG	1.520060e-01	1.064180e-03	4	true
137           	smoothSolver	1.384440e-03	1.118530e-04	11	2.309840e-02	1.913720e-03	8	false	GAMG	1.581700e-01	1.376660e-03	4	true
138           	smoothSolver	1.378710e-03	1.115090e-04	11	2.489600e-02	2.462240e-03	7	false	GAMG	1.536850e-01	1.378130e-03	4	true
139           	smoothSolver	1.373160e-03	1.111710e-04	11	2.491040e-02	2.365010e-03	7	false	GAMG	1.570930e-01	1.294760e-03	4	true
140           	smoothSolver	1.367530e-03	1.108340e-04	11	2.354360e-02	2.352930e-03	7	false	GAMG	1.536140e-01	1.403780e-03	4	true
141           	smoothSolver	1.362060e-03	1.104980e-04	11	2.558490e-02	2.355690e-03	7	false	GAMG	1.582160e-01	1.106930e-03	4	true
142           	smoothSolver	1.356500e-03	1.101590e-04	11	2.563890e-02	2.410210e-03	7	false	GAMG	1.545080e-01	1.471200e-03	4	true
143           	smoothSolver	1.351070e-03	1.098280e-04	11	2.499660e-02	2.304730e-03	7	false	GAMG	1.664910e-01	1.235340e-03	4	true
144           	smoothSolver	1.345630e-03	1.094970e-04	11	2.693620e-02	2.430110e-03	7	false	GAMG	1.635590e-01	1.014340e-03	4	true
145           	smoothSolver	1.340210e-03	1.091650e-04	11	2.508950e-02	2.182040e-03	7	false	GAMG	1.648550e-01	1.074340e-03	4	true
146           	smoothSolver	1.334800e-03	1.088340e-04	11	2.467130e-02	2.288310e-03	7	false	GAMG	1.761400e-01	1.260890e-03	4	true
147           	smoothSolver	1.329510e-03	1.085090e-04	11	2.384300e-02	2.210850e-03	7	false	GAMG	1.607830e-01	1.105560e-03	4	true
148           	smoothSolver	1.324200e-03	1.081810e-04	11	2.503130e-02	2.177620e-03	7	false	GAMG	1.483020e-01	1.086540e-03	4	true
149           	smoothSolver	1.319030e-03	1.078610e-04	11	2.446070e-02	2.081160e-03	7	false	GAMG	1.763410e-01	1.479480e-03	4	true
150           	smoothSolver	1.313790e-03	1.075390e-04	11	2.227400e-02	2.045670e-03	7	false	GAMG	1.565560e-01	1.315800e-03	4	true
151           	smoothSolver	1.308650e-03	1.072200e-04	11	2.313630e-02	1.918760e-03	7	false	GAMG	1.694590e-01	1.145370e-03	4	true
152           	smoothSolver	1.303520e-03	1.069000e-04	11	2.397080e-02	2.164940e-03	7	false	GAMG	1.616070e-01	1.320150e-03	4	true
153           	smoothSolver	1.298440e-03	1.065840e-04	11	2.300880e-02	2.202660e-03	7	false	GAMG	1.591290e-01	1.408790e-03	4	true
154           	smoothSolver	1.293430e-03	1.062700e-04	11	2.658930e-02	2.229240e-03	7	false	GAMG	1.595040e-01	1.386140e-03	4	true
155           	smoothSolver	1.288430e-03	1.059570e-04	11	2.564570e-02	2.217170e-03	7	false	GAMG	1.528760e-01	1.283310e-03	4	true
156           	smoothSolver	1.283510e-03	1.056510e-04	11	2.713560e-02	2.322160e-03	7	false	GAMG	1.769100e-01	1.470010e-03	4	true
157           	smoothSolver	1.278640e-03	1.053470e-04	11	2.780920e-02	2.326100e-03	7	false	GAMG	1.655330e-01	1.635160e-03	4	true
158           	smoothSolver	1.273810e-03	1.050410e-04	11	2.563200e-02	2.284350e-03	7	false	GAMG	1.536700e-01	1.288100e-03	4	true
159           	smoothSolver	1.269000e-03	1.047380e-04	11	2.587230e-02	2.269160e-03	7	false	GAMG	1.610100e-01	1.492490e-03	4	true
160           	smoothSolver	1.264260e-03	1.044410e-04	11	2.632270e-02	2.314440e-03	7	false	GAMG	1.619800e-01	1.608900e-03	4	true
161           	smoothSolver	1.259600e-03	1.041480e-04	11	2.705830e-02	2.095240e-03	7	false	GAMG	1.664460e-01	1.441300e-03	4	true
162           	smoothSolver	1.254950e-03	1.038560e-04	11	2.602290e-02	2.186540e-03	7	false	GAMG	1.518940e-01	1.517780e-03	4	true
163           	smoothSolver	1.250350e-03	1.035630e-04	11	2.576260e-02	2.280170e-03	7	false	GAMG	1.637650e-01	1.342430e-03	5	true
164           	smoothSolver	1.245710e-03	1.032700e-04	11	2.452760e-02	2.077810e-03	7	false	GAMG	1.510570e-01	1.219450e-03	5	true
165           	smoothSolver	1.241220e-03	1.029850e-04	11	2.601710e-02	2.234010e-03	7	false	GAMG	1.632410e-01	1.168860e-03	5	true
166           	smoothSolver	1.236690e-03	1.026950e-04	11	2.589080e-02	2.138070e-03	7	false	GAMG	1.677080e-01	1.377410e-03	4	true
167           	smoothSolver	1.232230e-03	1.024110e-04	11	2.358440e-02	1.994120e-03	7	false	GAMG	1.364270e-01	1.117710e-03	4	true
168           	smoothSolver	1.227720e-03	1.021230e-04	11	2.701290e-02	2.667480e-03	6	false	GAMG	1.621020e-01	1.455940e-03	4	true
169           	smoothSolver	1.223410e-03	1.018440e-04	11	2.556500e-02	2.068050e-03	7	false	GAMG	1.623030e-01	1.389730e-03	4	true
170           	smoothSolver	1.219000e-03	1.015650e-04	11	2.472190e-02	1.983810e-03	7	false	GAMG	1.737130e-01	1.384430e-03	4	true
171           	smoothSolver	1.214720e-03	1.012900e-04	11	2.599150e-02	2.579960e-03	6	false	GAMG	1.754070e-01	1.265940e-03	4	true
172           	smoothSolver	1.210450e-03	1.010170e-04	11	2.729270e-02	2.604510e-03	6	false	GAMG	1.724380e-01	1.297080e-03	4	true
173           	smoothSolver	1.206200e-03	1.007440e-04	11	2.563630e-02	2.121990e-03	7	false	GAMG	1.729770e-01	1.165240e-03	4	true
174           	smoothSolver	1.201940e-03	1.004730e-04	11	2.635020e-02	2.071710e-03	7	false	GAMG	1.608740e-01	1.258740e-03	4	true
175           	smoothSolver	1.197850e-03	1.002070e-04	11	2.441280e-02	2.051180e-03	7	false	GAMG	1.689690e-01	1.205600e-03	4	true
176           	smoothSolver	1.193720e-03	9.994310e-05	11	2.692010e-02	2.579760e-03	6	false	GAMG	1.754260e-01	1.378380e-03	4	true
177           	smoothSolver	1.189680e-03	9.968290e-05	11	2.742260e-02	2.624390e-03	6	false	GAMG	1.685080e-01	1.359320e-03	4	true
178           	smoothSolver	1.185710e-03	9.942540e-05	11	2.677810e-02	2.054160e-03	7	false	GAMG	1.638730e-01	1.231390e-03	4	true
179           	smoothSolver	1.181710e-03	9.916610e-05	11	2.690120e-02	2.036230e-03	7	false	GAMG	1.870000e-01	1.653390e-03	4	true
180           	smoothSolver	1.177790e-03	9.891100e-05	11	2.840770e-02	2.649880e-03	6	false	GAMG	1.716740e-01	1.544860e-03	4	true
181           	smoothSolver	1.173950e-03	9.866210e-05	11	3.233090e-02	3.229310e-03	6	false	GAMG	1.862210e-01	1.570020e-03	4	true
182           	smoothSolver	1.170120e-03	9.841260e-05	11	2.912210e-02	2.859930e-03	6	false	GAMG	1.828850e-01	1.458440e-03	4	true
183           	smoothSolver	1.166260e-03	9.816180e-05	11	2.978530e-02	2.248590e-03	7	false	GAMG	1.734430e-01	1.537370e-03	4	true
184           	smoothSolver	1.162530e-03	9.791880e-05	11	2.601850e-02	2.424120e-03	6	false	GAMG	1.721640e-01	1.593880e-03	4	true
185           	smoothSolver	1.158800e-03	9.768060e-05	11	2.824200e-02	2.624620e-03	6	false	GAMG	1.587800e-01	1.287460e-03	4	true
186           	smoothSolver	1.155150e-03	9.744600e-05	11	2.847540e-02	2.786630e-03	6	false	GAMG	1.810950e-01	1.424020e-03	4	true
187           	smoothSolver	1.151530e-03	9.721220e-05	11	2.873480e-02	2.813230e-03	6	false	GAMG	1.810670e-01	1.245790e-03	4	true
188           	smoothSolver	1.147930e-03	9.698220e-05	11	2.872900e-02	2.802050e-03	6	false	GAMG	1.761470e-01	1.313860e-03	4	true
189           	smoothSolver	1.144410e-03	9.675230e-05	11	2.702090e-02	2.534440e-03	6	false	GAMG	1.717610e-01	1.343780e-03	4	true
190           	smoothSolver	1.140960e-03	9.653100e-05	11	2.586320e-02	2.446920e-03	6	false	GAMG	1.633990e-01	1.550240e-03	4	true
191           	smoothSolver	1.137470e-03	9.630630e-05	11	2.629620e-02	2.595520e-03	6	false	GAMG	1.632340e-01	1.525500e-03	4	true
192           	smoothSolver	1.134040e-03	9.608340e-05	11	2.757530e-02	2.714280e-03	6	false	GAMG	1.680670e-01	1.464130e-03	4	true
193           	smoothSolver	1.130670e-03	9.586630e-05	11	2.712760e-02	2.114340e-03	7	false	GAMG	1.737740e-01	1.663190e-03	4	true
194           	smoothSolver	1.127350e-03	9.564990e-05	11	2.682990e-02	2.571720e-03	6	false	GAMG	1.572810e-01	1.463570e-03	4	true
195           	smoothSolver	1.124050e-03	9.543690e-05	11	2.773580e-02	2.501480e-03	6	false	GAMG	1.645760e-01	1.398360e-03	4	true
196           	smoothSolver	1.120760e-03	9.522570e-05	11	2.721930e-02	2.517510e-03	6	false	GAMG	1.581440e-01	1.522930e-03	4	true
197           	smoothSolver	1.117610e-03	9.502020e-05	11	2.877180e-02	2.741650e-03	6	false	GAMG	1.714930e-01	1.250650e-03	4	true
198           	smoothSolver	1.114380e-03	9.481230e-05	11	2.782380e-02	2.404760e-03	6	false	GAMG	1.653560e-01	1.392150e-03	4	true
199           	smoothSolver	1.111240e-03	9.460860e-05	11	2.776610e-02	2.521070e-03	6	false	GAMG	1.710040e-01	1.444130e-03	4	true
200           	smoothSolver	1.108110e-03	9.440640e-05	11	2.701370e-02	2.397710e-03	6	false	GAMG	1.719600e-01	1.306340e-03	4	true
201           	smoothSolver	1.105050e-03	9.420830e-05	11	2.707670e-02	2.443900e-03	6	false	GAMG	1.681680e-01	1.177050e-03	4	true
202           	smoothSolver	1.102070e-03	9.401290e-05	11	2.645280e-02	2.361120e-03	6	false	GAMG	1.675290e-01	1.444150e-03	4	true
203           	smoothSolver	1.099110e-03	9.381710e-05	11	2.814420e-02	2.574920e-03	6	false	GAMG	1.697690e-01	1.271630e-03	4	true
204           	smoothSolver	1.096260e-03	9.362890e-05	11	2.745540e-02	2.631220e-03	6	false	GAMG	1.670270e-01	1.214980e-03	4	true
205           	smoothSolver	1.093430e-03	9.344270e-05	11	3.027610e-02	2.684670e-03	6	false	GAMG	1.789260e-01	1.343690e-03	4	true
206           	smoothSolver	1.090650e-03	9.326120e-05	11	2.939630e-02	2.785580e-03	6	false	GAMG	1.632680e-01	1.288340e-03	4	true
207           	smoothSolver	1.087850e-03	9.307510e-05	11	2.775980e-02	2.547250e-03	6	false	GAMG	1.561110e-01	1.311630e-03	4	true
208           	smoothSolver	1.085130e-03	9.289320e-05	11	2.945640e-02	2.677690e-03	6	false	GAMG	1.758230e-01	1.439340e-03	4	true
209           	smoothSolver	1.082390e-03	9.271080e-05	11	2.905570e-02	2.515130e-03	6	false	GAMG	1.697400e-01	1.333250e-03	4	true
210           	smoothSolver	1.079680e-03	9.253240e-05	11	2.848570e-02	2.448430e-03	6	false	GAMG	1.706520e-01	1.033640e-03	5	true
211           	smoothSolver	1.077050e-03	9.235830e-05	11	2.877550e-02	2.557420e-03	6	false	GAMG	1.655900e-01	1.260820e-03	4	true
212           	smoothSolver	1.074450e-03	9.218320e-05	11	2.669040e-02	2.542970e-03	6	false	GAMG	1.606740e-01	1.270710e-03	4	true
213           	smoothSolver	1.071860e-03	9.201210e-05	11	2.935540e-02	2.645140e-03	6	false	GAMG	1.961380e-01	1.487490e-03	4	true
214           	smoothSolver	1.069350e-03	9.184470e-05	11	2.900430e-02	2.810310e-03	6	false	GAMG	1.791040e-01	1.541160e-03	4	true
215           	smoothSolver	1.066820e-03	9.167600e-05	11	3.063980e-02	2.942000e-03	6	false	GAMG	1.799290e-01	1.520610e-03	4	true
216           	smoothSolver	1.064380e-03	9.151490e-05	11	3.010340e-02	2.918200e-03	6	false	GAMG	1.699160e-01	1.503350e-03	4	true
217           	smoothSolver	1.061940e-03	9.135240e-05	11	2.873810e-02	2.644200e-03	6	false	GAMG	1.633930e-01	1.564570e-03	4	true
218           	smoothSolver	1.059560e-03	9.119270e-05	11	2.936670e-02	2.856280e-03	6	false	GAMG	1.680390e-01	1.364620e-03	4	true
219           	smoothSolver	1.057220e-03	9.103570e-05	11	3.137830e-02	3.037580e-03	6	false	GAMG	1.811930e-01	1.361230e-03	4	true
220           	smoothSolver	1.054880e-03	9.087840e-05	11	3.204790e-02	2.731060e-03	6	false	GAMG	1.629920e-01	1.401400e-03	4	true
221           	smoothSolver	1.052640e-03	9.072590e-05	11	3.155420e-02	2.685340e-03	6	false	GAMG	1.759230e-01	1.416070e-03	4	true
222           	smoothSolver	1.050430e-03	9.058150e-05	11	2.954360e-02	2.584420e-03	6	false	GAMG	1.519920e-01	1.512720e-03	4	true
223           	smoothSolver	1.048300e-03	9.044130e-05	11	3.127510e-02	2.826070e-03	6	false	GAMG	1.608250e-01	1.539910e-03	4	true
224           	smoothSolver	1.046040e-03	9.029490e-05	11	3.188900e-02	2.609420e-03	6	false	GAMG	1.624860e-01	1.529850e-03	4	true
225           	smoothSolver	1.043990e-03	9.015830e-05	11	3.367550e-02	2.913720e-03	6	false	GAMG	1.589410e-01	1.379630e-03	4	true
226           	smoothSolver	1.041840e-03	9.001950e-05	11	3.073890e-02	2.701540e-03	6	false	GAMG	1.594040e-01	1.555020e-03	4	true
227           	smoothSolver	1.039780e-03	8.988450e-05	11	3.347780e-02	3.010210e-03	6	false	GAMG	1.667460e-01	1.554630e-03	4	true
228           	smoothSolver	1.037770e-03	8.975110e-05	11	3.487020e-02	2.993400e-03	6	false	GAMG	1.769430e-01	1.615200e-03	4	true
229           	smoothSolver	1.035840e-03	8.962480e-05	11	3.156060e-02	2.841060e-03	6	false	GAMG	1.637150e-01	1.604980e-03	5	true
230           	smoothSolver	1.033740e-03	8.948960e-05	11	3.380790e-02	2.976400e-03	6	false	GAMG	1.636430e-01	1.517370e-03	4	true