y,epsilon,k,nut,U_0,U_1,U_2
0.000567512,0.115972,0.00339438,7.54121e-06,0.263382,-1.92819e-08,0
0.000851268,0.105507,0.00341682,1.08834e-05,0.395074,-2.89229e-08,0
0.00113502,0.0950423,0.00343926,1.42256e-05,0.526764,-4.54565e-08,0
0.00174332,0.0681721,0.00345933,2.13779e-05,0.55802,-5.71646e-08,3.28154e-23
0.00235161,0.041302,0.00347941,2.85302e-05,0.589276,-7.80838e-08,5.17112e-23
0.00267761,0.0370868,0.00346019,3.24813e-05,0.598483,-8.51441e-08,3.92684e-23
0.00300362,0.0328717,0.00344098,3.64324e-05,0.607689,-9.22044e-08,2.68255e-23
0.00332962,0.0286566,0.00342176,4.03835e-05,0.616896,-9.92648e-08,1.43827e-23
0.00470391,0.018722,0.00336929,5.743e-05,0.646034,-1.28533e-07,-3.6728e-23
0.00916136,0.00877158,0.00329739,0.000113798,0.700084,-1.56071e-07,0
0.0147607,0.00523683,0.00325482,0.000184066,0.737805,-9.03418e-08,0
0.0152906,0.00503788,0.00325157,0.000190652,0.740622,-8.18295e-08,0
0.0158205,0.00483892,0.00324831,0.000197238,0.74344,-7.06833e-08,0
0.0161045,0.00475927,0.00324672,0.000200737,0.744751,-6.56393e-08,0
0.0163884,0.00467961,0.00324514,0.000204236,0.746063,-6.05953e-08,0
0.0175244,0.004361,0.00323879,0.000218232,0.751309,-4.04195e-08,0
0.0218326,0.0034651,0.00321663,0.000270702,0.76847,4.88542e-08,0
0.0224851,0.00335706,0.00321344,0.000278582,0.770807,6.13911e-08,0
0.0231376,0.00324902,0.00321025,0.00028646,0.773144,7.91999e-08,0
0.0245365,0.00306716,0.00320376,0.00030316,0.777603,1.06567e-07,7.86203e-23
0.0259353,0.00288529,0.00319725,0.000319859,0.782061,1.39076e-07,1.31258e-22
0.0274347,0.00273046,0.00319055,0.000337542,0.786339,1.68857e-07,5.57116e-23
0.0289341,0.00257563,0.00318385,0.000355223,0.790616,2.03015e-07,5.13266e-24
0.0293359,0.00254235,0.00318211,0.000359899,0.791647,2.11099e-07,-1.45242e-23
0.0297376,0.00250907,0.00318038,0.000364576,0.792678,2.19182e-07,-3.41811e-23
0.0305412,0.00244252,0.0031769,0.000373929,0.79474,2.3535e-07,-7.34948e-23
0.0308626,0.00241589,0.00317551,0.000377671,0.795565,2.41816e-07,-8.92203e-23
0.0311841,0.00238927,0.00317412,0.000381412,0.79639,2.48283e-07,-1.04946e-22
0.0374399,0.00197777,0.00314788,0.000453056,0.810728,3.74768e-07,9.11872e-23
0.0383631,0.00192737,0.00314409,0.000463495,0.812668,3.91937e-07,1.36781e-22
0.0392863,0.00187697,0.00314031,0.000473937,0.814608,4.07648e-07,1.59843e-22
0.0412654,0.00178834,0.00313234,0.000495964,0.81839,4.38948e-07,1.3776e-22
0.0432445,0.00169972,0.00312438,0.000517995,0.822172,4.66299e-07,1.04307e-22
0.0453658,0.00162136,0.00311601,0.000541216,0.82587,4.90151e-07,-5.16769e-23
0.0608271,0.00119595,0.00305681,0.000705371,0.849204,4.74873e-07,0
0.0614802,0.00118203,0.00305436,0.000712134,0.850081,4.63473e-07,0
0.0621332,0.00116811,0.00305192,0.000718898,0.850958,4.52072e-07,0
0.0649332,0.00111801,0.00304156,0.000747274,0.854418,4.15134e-07,0
0.0663332,0.00109296,0.00303638,0.000761463,0.856148,3.96665e-07,0
0.0677332,0.00106791,0.00303121,0.000775658,0.857879,3.66377e-07,0
0.0707343,0.0010227,0.00302025,0.000805394,0.861298,3.17158e-07,0
0.0737355,0.000977504,0.00300929,0.000835128,0.864718,2.60514e-07,0
0.0769523,0.000936594,0.00299768,0.000866239,0.868103,2.06456e-07,0
0.0801692,0.000895693,0.00298606,0.00089734,0.871488,1.52703e-07,0
0.0836172,0.000858564,0.00297376,0.000929842,0.874844,1.04667e-07,0
0.0870652,0.000821441,0.00296144,0.000962331,0.878199,6.47166e-08,0
0.090761,0.000787658,0.00294835,0.000996203,0.88153,3.16095e-08,2.68894e-22
0.0944567,0.000753871,0.00293524,0.00103007,0.884861,1.07977e-08,4.70956e-22
0.0984181,0.000723049,0.00292133,0.00106533,0.888172,-2.97838e-09,2.07662e-22
0.102379,0.000692221,0.00290741,0.00110059,0.891482,-6.17098e-09,9.80725e-24
0.106625,0.000664032,0.00289267,0.00113727,0.894775,-2.40118e-09,1.01372e-23
0.110871,0.000635838,0.00287792,0.00117396,0.898069,5.90723e-09,-1.17273e-23
0.115423,0.000610005,0.00286229,0.00121205,0.901348,1.69341e-08,-1.18172e-23
0.119974,0.000584167,0.00284666,0.00125015,0.904628,2.63341e-08,9.7504e-24
0.124852,0.000560449,0.00283008,0.00128961,0.907896,3.29736e-08,-2.59872e-22
0.12973,0.000536729,0.00281349,0.00132908,0.911165,3.5358e-08,-4.40351e-22
0.134959,0.000514925,0.00279589,0.00136983,0.914425,2.97199e-08,-1.76568e-22
0.140188,0.00049312,0.00277827,0.00141058,0.917685,2.18584e-08,0
0.145792,0.000473051,0.00275958,0.00145253,0.92094,4.36813e-09,0
0.151397,0.000452982,0.00274087,0.00149447,0.924194,-1.22459e-08,0
0.157404,0.000434472,0.00272099,0.00153752,0.927445,-3.54279e-08,0
0.163411,0.000415962,0.00270112,0.00158057,0.930696,-5.56042e-08,0
0.16985,0.000398859,0.00268,0.00162464,0.933945,-7.88988e-08,0
0.176289,0.000381755,0.0026589,0.00166874,0.937195,-9.80897e-08,0
0.18319,0.000365939,0.00263647,0.00171368,0.940444,-1.20013e-07,0
0.190092,0.00035012,0.00261406,0.00175864,0.943693,-1.36431e-07,0
0.197489,0.00033547,0.00259024,0.00180428,0.946944,-1.53239e-07,0
0.204887,0.000320819,0.00256643,0.00184992,0.950194,-1.64826e-07,0
0.212816,0.000307228,0.00254112,0.00189606,0.953447,-1.68694e-07,0
0.220745,0.00029364,0.0025158,0.00194217,0.9567,-1.68661e-07,0
0.229244,0.000281023,0.00248889,0.00198849,0.959955,-1.69916e-07,0
0.237743,0.000268404,0.00246197,0.0020348,0.96321,-1.69475e-07,0
0.246853,0.000256663,0.0024334,0.0020812,0.966468,-1.74651e-07,0
0.255962,0.000244919,0.00240482,0.00212759,0.969726,-1.80631e-07,0
0.265727,0.00023398,0.0023745,0.00217377,0.972986,-1.86808e-07,0
0.275491,0.000223044,0.00234419,0.00221993,0.976246,-1.93935e-07,0
0.285957,0.000212849,0.00231203,0.0022655,0.979507,-2.07322e-07,0
0.296423,0.000202655,0.0022799,0.0023111,0.982769,-2.18229e-07,0
0.307641,0.000193146,0.00224582,0.00235569,0.986029,-2.24407e-07,0
0.318859,0.000183635,0.00221176,0.00240031,0.98929,-2.28039e-07,0
0.330883,0.000174753,0.00217565,0.00244353,0.992546,-2.22541e-07,-1.37776e-22
0.342907,0.000165871,0.00213955,0.00248674,0.995803,-2.17953e-07,-2.06664e-22
0.355795,0.000157566,0.00210136,0.00252826,0.999053,-2.14451e-07,-7.50144e-23
0.368683,0.000149261,0.00206316,0.00256973,1.0023,-2.1085e-07,-9.18967e-24
0.382498,0.000141498,0.00202285,0.00260906,1.00554,-2.12513e-07,1.29471e-22
0.396312,0.000133735,0.00198253,0.00264837,1.00877,-2.13126e-07,1.98801e-22
0.411119,0.000126475,0.00194008,0.00268522,1.01199,-2.14649e-07,6.62669e-23
0.425926,0.000119214,0.00189763,0.00272209,1.0152,-2.12939e-07,0
0.441797,0.000112424,0.00185307,0.00275626,1.01839,-2.07926e-07,3.54867e-22
0.457668,0.000105634,0.00180851,0.00279043,1.02157,-2.00582e-07,6.57368e-22
0.47468,9.92953e-05,0.00176195,0.00282179,1.02471,-2.04483e-07,3.21628e-22
0.491692,9.29575e-05,0.0017154,0.00285313,1.02785,-2.06798e-07,3.54342e-23
0.509926,8.70609e-05,0.00166711,0.00288178,1.03092,-2.12778e-07,-3.23254e-22
0.52816,8.11639e-05,0.00161881,0.00291042,1.03399,-2.19193e-07,-6.29013e-22
0.547704,7.57089e-05,0.00156918,0.00293677,1.03698,-2.25063e-07,-2.89452e-22
0.567248,7.02533e-05,0.00151954,0.00296314,1.03997,-2.33976e-07,0
0.588197,6.52504e-05,0.00146921,0.00298817,1.04283,-2.45022e-07,0
0.609146,6.02476e-05,0.00141889,0.00301323,1.0457,-2.56008e-07,0
0.6316,5.57205e-05,0.00136882,0.00303856,1.0484,-2.59127e-07,0
0.654054,5.11933e-05,0.00131875,0.00306391,1.0511,-2.5939e-07,0
0.678122,4.71815e-05,0.00127025,0.00309152,1.05359,-2.52381e-07,0
0.70219,4.31696e-05,0.00122175,0.00311913,1.05608,-2.42885e-07,0
0.727987,3.97284e-05,0.00117662,0.00315101,1.0583,-2.29192e-07,0
0.753784,3.62875e-05,0.00113149,0.00318287,1.06051,-2.14286e-07,0
0.781436,3.34789e-05,0.00109191,0.00321972,1.06238,-1.95544e-07,0
0.809087,3.06703e-05,0.00105232,0.00325657,1.06425,-1.75697e-07,0
0.838725,2.85614e-05,0.00102076,0.00329538,1.06569,-1.52094e-07,-2.86091e-22
0.868363,2.64525e-05,0.000989198,0.00333421,1.06713,-1.27696e-07,-5.00856e-22
0.900131,2.51151e-05,0.000968268,0.00336647,1.06807,-9.82235e-08,-4.03293e-22
0.931899,2.37778e-05,0.000947337,0.00339873,1.06901,-6.78569e-08,-3.30055e-22
0.965949,2.33091e-05,0.000939827,0.00341189,1.06934,-3.44869e-08,6.39905e-23
1,2.28406e-05,0.000932317,0.00342502,1.06967,0,3.59795e-22
